Program Version,EnergyPlus, Version 8.9.0-40101eaafd, YMD=2025.09.05 02:40
1,5,Environment Title[],Latitude[deg],Longitude[deg],Time Zone[],Elevation[m]
2,8,Day of Simulation[],Month[],Day of Month[],DST Indicator[1=yes 0=no],Hour[],StartMinute[],EndMinute[],DayType
3,5,Cumulative Day of Simulation[],Month[],Day of Month[],DST Indicator[1=yes 0=no],DayType  ! When Daily Report Variables Requested
4,2,Cumulative Days of Simulation[],Month[]  ! When Monthly Report Variables Requested
5,1,Cumulative Days of Simulation[] ! When Run Period Report Variables Requested
6,1,Calendar Year of Simulation[] ! When Annual Report Variables Requested
7,1,Environment,Site Outdoor Air Drybulb Temperature [C] !Hourly
8,1,ZONE DEFAULT,Zone Mean Radiant Temperature [C] !Hourly
9,1,ZONE DEFAULT,Zone Mean Air Temperature [C] !Hourly
96,1,ZONE DEFAULT,Zone Air Relative Humidity [%] !Hourly
End of Data Dictionary
1,TROPOS3D MODEL,  -3.77, -38.60,  -3.00,  42.50
2,1, 1, 1, 0, 1, 0.00,60.00,Sunday
7,27.0
8,26.357406935094106
9,26.461067550428237
96,78.498047611875
2,1, 1, 1, 0, 2, 0.00,60.00,Sunday
7,26.812500000000005
8,25.577853008481637
9,25.68645761822779
96,82.19619643194574
2,1, 1, 1, 0, 3, 0.00,60.00,Sunday
7,26.637500000000004
8,24.907624077092629
9,25.02613228265811
96,85.43037459727111
2,1, 1, 1, 0, 4, 0.00,60.00,Sunday
7,26.5375
8,24.32838548195407
9,24.457350066634857
96,88.34967818734148
2,1, 1, 1, 0, 5, 0.00,60.00,Sunday
7,26.5
8,23.84378368725895
9,23.97858690754064
96,90.93552628153131
2,1, 1, 1, 0, 6, 0.00,60.00,Sunday
7,26.312500000000005
8,23.489187742844835
9,23.616566667609626
96,92.97456060537438
2,1, 1, 1, 0, 7, 0.00,60.00,Sunday
7,26.137500000000004
8,23.607596038568276
9,23.724669052458486
96,92.4021367026133
2,1, 1, 1, 0, 8, 0.00,60.00,Sunday
7,27.1
8,24.528176078086966
9,24.640440878168716
96,87.55026411151519
2,1, 1, 1, 0, 9, 0.00,60.00,Sunday
7,28.262500000000004
8,26.16045480019605
9,26.39650470999694
96,78.95045557244186
2,1, 1, 1, 0,10, 0.00,60.00,Sunday
7,29.9125
8,28.159320910957278
9,28.38116170629604
96,70.3094865464528
2,1, 1, 1, 0,11, 0.00,60.00,Sunday
7,30.075
8,30.180275320198424
9,30.28120263987808
96,63.00267026560391
2,1, 1, 1, 0,12, 0.00,60.00,Sunday
7,31.575000000000004
8,32.06443837812822
9,32.03697775889155
96,56.98803499378073
2,1, 1, 1, 0,13, 0.00,60.00,Sunday
7,32.575
8,33.94485311928988
9,33.80761100334672
96,51.57403496773739
2,1, 1, 1, 0,14, 0.00,60.00,Sunday
7,32.5
8,35.857077082974317
9,35.649213615932158
96,46.53359468115423
2,1, 1, 1, 0,15, 0.00,60.00,Sunday
7,32.5
8,37.591094470484829
9,37.41377225294461
96,42.21011811689266
2,1, 1, 1, 0,16, 0.00,60.00,Sunday
7,32.3125
8,38.823037824352
9,38.810339613919449
96,39.09722410879989
2,1, 1, 1, 0,17, 0.00,60.00,Sunday
7,31.45
8,39.107605711289277
9,39.324394381629719
96,38.004823878407737
2,1, 1, 1, 0,18, 0.00,60.00,Sunday
7,29.875000000000005
8,37.82646912691445
9,38.26239070954911
96,40.25320088059776
2,1, 1, 1, 0,19, 0.00,60.00,Sunday
7,28.45
8,35.56585034447012
9,36.004000832483999
96,45.542028101089247
2,1, 1, 1, 0,20, 0.00,60.00,Sunday
7,27.6875
8,33.29737571541904
9,33.66938674023393
96,51.83595715308457
2,1, 1, 1, 0,21, 0.00,60.00,Sunday
7,27.312500000000005
8,31.355318813427809
9,31.583345259191959
96,58.30520393811532
2,1, 1, 1, 0,22, 0.00,60.00,Sunday
7,27.137500000000004
8,29.73219857960163
9,29.88013662481645
96,64.27622352151558
2,1, 1, 1, 0,23, 0.00,60.00,Sunday
7,27.0375
8,28.38628340051675
9,28.514775492484814
96,69.56843335790892
2,1, 1, 1, 0,24, 0.00,60.00,Sunday
7,27.0
8,27.281161568148059
9,27.38494165004928
96,74.29532254432395
2,2, 1, 2, 0, 1, 0.00,60.00,Monday
7,27.0
8,26.358866306440093
9,26.462016784188366
96,78.4156989063732
2,2, 1, 2, 0, 2, 0.00,60.00,Monday
7,27.0
8,25.603062203888528
9,25.705784766816639
96,81.96679847846579
2,2, 1, 2, 0, 3, 0.00,60.00,Monday
7,26.812500000000005
8,24.98483237156895
9,25.09019840745431
96,84.98244113830887
2,2, 1, 2, 0, 4, 0.00,60.00,Monday
7,26.575
8,24.47040190995412
9,24.58002737945693
96,87.56309868904893
2,2, 1, 2, 0, 5, 0.00,60.00,Monday
7,26.625000000000005
8,24.047128055120667
9,24.156575517409878
96,89.81391937882707
2,2, 1, 2, 0, 6, 0.00,60.00,Monday
7,26.575
8,23.748118536156917
9,23.84922167145095
96,91.51670417522579
2,2, 1, 2, 0, 7, 0.00,60.00,Monday
7,26.5
8,23.898351937866904
9,23.98552905339153
96,90.81045962960538
2,2, 1, 2, 0, 8, 0.00,60.00,Monday
7,26.875
8,24.842065412008144
9,24.92983295638276
96,85.89411121327444
2,2, 1, 2, 0, 9, 0.00,60.00,Monday
7,27.6625
8,26.55234841133062
9,26.740161368133454
96,77.25084655050803
2,2, 1, 2, 0,10, 0.00,60.00,Monday
7,28.9375
8,28.62503700779871
9,28.80201841162902
96,68.52814980782633
2,2, 1, 2, 0,11, 0.00,60.00,Monday
7,30.1875
8,30.67099726733137
9,30.759623883645817
96,61.23626071401791
2,2, 1, 2, 0,12, 0.00,60.00,Monday
7,30.35
8,32.5026558048246
9,32.49814626693231
96,55.47551880792662
2,2, 1, 2, 0,13, 0.00,60.00,Monday
7,31.0125
8,34.20704252355103
9,34.10861820602856
96,50.67437056959154
2,2, 1, 2, 0,14, 0.00,60.00,Monday
7,32.125
8,35.94258065973973
9,35.76273849271365
96,46.21100077638499
2,2, 1, 2, 0,15, 0.00,60.00,Monday
7,32.0
8,37.55279264880222
9,37.386391272515059
96,42.24010233399102
2,2, 1, 2, 0,16, 0.00,60.00,Monday
7,31.637500000000004
8,38.685215348729418
9,38.680550606854989
96,39.343550148521838
2,2, 1, 2, 0,17, 0.00,60.00,Monday
7,31.0375
8,38.95911909264402
9,39.17526745060412
96,38.28920565269354
2,2, 1, 2, 0,18, 0.00,60.00,Monday
7,30.012500000000004
8,37.662291727853027
9,38.11699104694566
96,40.55800234511183
2,2, 1, 2, 0,19, 0.00,60.00,Monday
7,28.6625
8,35.43063676725609
9,35.883339284972439
96,45.832258671996687
2,2, 1, 2, 0,20, 0.00,60.00,Monday
7,27.5375
8,33.189732722952317
9,33.57773871723172
96,52.087587873266929
2,2, 1, 2, 0,21, 0.00,60.00,Monday
7,27.075
8,31.207223063254206
9,31.45077253441483
96,58.72395273831536
2,2, 1, 2, 0,22, 0.00,60.00,Monday
7,26.812500000000005
8,29.52028378509591
9,29.679182898406596
96,65.00966206668844
2,2, 1, 2, 0,23, 0.00,60.00,Monday
7,26.7
8,28.120661763324074
9,28.26112874062682
96,70.60601222068599
2,2, 1, 2, 0,24, 0.00,60.00,Monday
7,26.637500000000004
8,26.973755043318339
9,27.093234957442275
96,75.58709274849949
2,3, 1, 3, 0, 1, 0.00,60.00,Tuesday
7,26.5375
8,26.035328912396197
9,26.148260440416235
96,79.87401057788643
2,3, 1, 3, 0, 2, 0.00,60.00,Tuesday
7,26.312500000000005
8,25.236996718078406
9,25.35688383752466
96,83.67655606706026
2,3, 1, 3, 0, 3, 0.00,60.00,Tuesday
7,26.2
8,24.557419238448845
9,24.6842996380798
96,87.04938303321112
2,3, 1, 3, 0, 4, 0.00,60.00,Tuesday
7,26.2
8,23.994200844177997
9,24.127529633922415
96,89.98135854389904
2,3, 1, 3, 0, 5, 0.00,60.00,Tuesday
7,25.7625
8,23.514480313973693
9,23.660620679497897
96,92.53329856090144
2,3, 1, 3, 0, 6, 0.00,60.00,Tuesday
7,25.312500000000005
8,23.158086706780219
9,23.291084716907379
96,94.62716026543025
2,3, 1, 3, 0, 7, 0.00,60.00,Tuesday
7,25.3875
8,23.297431059789259
9,23.4050644419758
96,94.03831761994484
2,3, 1, 3, 0, 8, 0.00,60.00,Tuesday
7,26.4375
8,24.24696260519318
9,24.354536411661387
96,88.93078114847842
2,3, 1, 3, 0, 9, 0.00,60.00,Tuesday
7,27.437500000000005
8,25.93815598698514
9,26.184509443660219
96,79.84873770813856
2,3, 1, 3, 0,10, 0.00,60.00,Tuesday
7,29.2625
8,28.0118303415066
9,28.245098154519359
96,70.79698618846916
2,3, 1, 3, 0,11, 0.00,60.00,Tuesday
7,31.1375
8,30.10373538311072
9,30.220082290588907
96,63.173075079370388
2,3, 1, 3, 0,12, 0.00,60.00,Tuesday
7,31.7
8,31.95910512490557
9,31.967128342490939
96,57.176001877305868
2,3, 1, 3, 0,13, 0.00,60.00,Tuesday
7,31.3875
8,33.588880331961899
9,33.50346411002215
96,52.4227917569957
2,3, 1, 3, 0,14, 0.00,60.00,Tuesday
7,31.137500000000004
8,35.24442497848618
9,35.060702875286057
96,48.051555130643468
2,3, 1, 3, 0,15, 0.00,60.00,Tuesday
7,31.6625
8,36.84960063073183
9,36.68382328154209
96,43.92078541720988
2,3, 1, 3, 0,16, 0.00,60.00,Tuesday
7,31.500000000000005
8,37.89973188544064
9,37.9049741730241
96,41.06610909235965
2,3, 1, 3, 0,17, 0.00,60.00,Tuesday
7,31.137500000000004
8,38.09839372374579
9,38.30642551469194
96,40.170529815392068
2,3, 1, 3, 0,18, 0.00,60.00,Tuesday
7,29.9125
8,36.93892058114845
9,37.36156698798329
96,42.294208544793168
2,3, 1, 3, 0,19, 0.00,60.00,Tuesday
7,28.45
8,34.88389508793723
9,35.27568234122106
96,47.41607896487774
2,3, 1, 3, 0,20, 0.00,60.00,Tuesday
7,27.500000000000005
8,32.7653724350799
9,33.03320155496648
96,53.71289291311558
2,3, 1, 3, 0,21, 0.00,60.00,Tuesday
7,27.075
8,30.89367796284501
9,31.085194407671314
96,59.97388130264025
2,3, 1, 3, 0,22, 0.00,60.00,Tuesday
7,26.75
8,29.284491474096958
9,29.43998842910441
96,65.92723808049493
2,3, 1, 3, 0,23, 0.00,60.00,Tuesday
7,26.5375
8,27.93687033280959
9,28.07098215054781
96,71.40436165969612
2,3, 1, 3, 0,24, 0.00,60.00,Tuesday
7,26.5
8,26.84888854401938
9,26.95536383538373
96,76.2384672930548
2,4, 1, 4, 0, 1, 0.00,60.00,Wednesday
7,26.5
8,25.97507184706056
9,26.077002066231345
96,80.28573556328058
2,4, 1, 4, 0, 2, 0.00,60.00,Wednesday
7,26.5
8,25.25032209979
9,25.354101698547305
96,83.780595975274
2,4, 1, 4, 0, 3, 0.00,60.00,Wednesday
7,26.5
8,24.627437363396284
9,24.739063186805006
96,86.90260086050376
2,4, 1, 4, 0, 4, 0.00,60.00,Wednesday
7,26.1875
8,24.082112702422646
9,24.20579847404949
96,89.71725000696583
2,4, 1, 4, 0, 5, 0.00,60.00,Wednesday
7,25.4375
8,23.596732362267287
9,23.732504514713054
96,92.31174560583507
2,4, 1, 4, 0, 6, 0.00,60.00,Wednesday
7,24.85
8,23.18934980522932
9,23.31839013025506
96,94.67969890764329
2,4, 1, 4, 0, 7, 0.00,60.00,Wednesday
7,24.7
8,23.13333764655303
9,23.217226173981378
96,95.29923497276418
2,4, 1, 4, 0, 8, 0.00,60.00,Wednesday
7,25.325
8,23.81035571518825
9,23.856151803297075
96,91.7779700723516
2,4, 1, 4, 0, 9, 0.00,60.00,Wednesday
7,27.575
8,25.298679105204657
9,25.394518395127755
96,83.78999622852135
2,4, 1, 4, 0,10, 0.00,60.00,Wednesday
7,29.2
8,27.275854739997667
9,27.390807035633764
96,74.52187150472784
2,4, 1, 4, 0,11, 0.00,60.00,Wednesday
7,30.562500000000005
8,29.354132759102244
9,29.402353179634774
96,66.30994929610985
2,4, 1, 4, 0,12, 0.00,60.00,Wednesday
7,31.2
8,31.34046981694796
9,31.293248415650618
96,59.49115762529765
2,4, 1, 4, 0,13, 0.00,60.00,Wednesday
7,31.3875
8,33.16274123362973
9,33.040457367841707
96,53.8822063840759
2,4, 1, 4, 0,14, 0.00,60.00,Wednesday
7,31.625000000000005
8,34.803052724210939
9,34.62372191221869
96,49.30538543215986
2,4, 1, 4, 0,15, 0.00,60.00,Wednesday
7,31.637500000000004
8,36.2358145462175
9,36.07660097592525
96,45.47871946395232
2,4, 1, 4, 0,16, 0.00,60.00,Wednesday
7,31.85
8,37.27140796909562
9,37.25140071011062
96,42.61105668605954
2,4, 1, 4, 0,17, 0.00,60.00,Wednesday
7,31.187500000000005
8,37.54638524986545
9,37.72489027706197
96,41.49993640419628
2,4, 1, 4, 0,18, 0.00,60.00,Wednesday
7,30.075
8,36.589778318575827
9,36.96147093933011
96,43.254723133630559
2,4, 1, 4, 0,19, 0.00,60.00,Wednesday
7,28.6375
8,34.68235868625557
9,35.05698751502509
96,48.036490708740718
2,4, 1, 4, 0,20, 0.00,60.00,Wednesday
7,27.6875
8,32.62664979278112
9,32.89478130832781
96,54.205630693437928
2,4, 1, 4, 0,21, 0.00,60.00,Wednesday
7,27.312500000000005
8,30.79769761599238
9,30.987033579062215
96,60.40980710633282
2,4, 1, 4, 0,22, 0.00,60.00,Wednesday
7,27.2
8,29.270103641248796
9,29.41874079432288
96,66.13153938817536
2,4, 1, 4, 0,23, 0.00,60.00,Wednesday
7,27.2
8,28.026586988891226
9,28.145309295029798
96,71.23011479138403
2,4, 1, 4, 0,24, 0.00,60.00,Wednesday
7,27.075
8,27.026105789762583
9,27.12475436868219
96,75.61551928816158
2,5, 1, 5, 0, 1, 0.00,60.00,Thursday
7,27.0625
8,26.207740081091595
9,26.302227354927056
96,79.35729410723944
2,5, 1, 5, 0, 2, 0.00,60.00,Thursday
7,27.1
8,25.529742989152969
9,25.62352443767218
96,82.58897701469208
2,5, 1, 5, 0, 3, 0.00,60.00,Thursday
7,27.0375
8,24.960247430305846
9,25.057537236540605
96,85.37831097714165
2,5, 1, 5, 0, 4, 0.00,60.00,Thursday
7,26.812500000000005
8,24.459055775817367
9,24.569340549850474
96,87.88624589027939
2,5, 1, 5, 0, 5, 0.00,60.00,Thursday
7,26.575
8,24.00788318384055
9,24.130642053432014
96,90.25367367428879
2,5, 1, 5, 0, 6, 0.00,60.00,Thursday
7,26.1875
8,23.65483193167476
9,23.77127235989222
96,92.26147780619401
2,5, 1, 5, 0, 7, 0.00,60.00,Thursday
7,25.6875
8,23.705495963935588
9,23.796201493858655
96,92.14794464370427
2,5, 1, 5, 0, 8, 0.00,60.00,Thursday
7,26.1875
8,24.421509526966387
9,24.50043338256598
96,88.38793913662221
2,5, 1, 5, 0, 9, 0.00,60.00,Thursday
7,27.85
8,25.74054144700907
9,25.851882369529699
96,81.60722307822772
2,5, 1, 5, 0,10, 0.00,60.00,Thursday
7,29.7875
8,27.33140703534569
9,27.393381420066875
96,74.55125328147743
2,5, 1, 5, 0,11, 0.00,60.00,Thursday
7,30.1875
8,28.99991885409089
9,28.949766757313016
96,68.10286584441173
2,5, 1, 5, 0,12, 0.00,60.00,Thursday
7,30.9375
8,30.73825554744011
9,30.572393363266465
96,62.04194104147528
2,5, 1, 5, 0,13, 0.00,60.00,Thursday
7,31.5625
8,32.507479294082937
9,32.26005679359269
96,56.35001169307276
2,5, 1, 5, 0,14, 0.00,60.00,Thursday
7,31.9125
8,34.182232668825459
9,33.91831106640385
96,51.30684767245763
2,5, 1, 5, 0,15, 0.00,60.00,Thursday
7,31.225
8,35.59392247383086
9,35.39831990893828
96,47.21922902071941
2,5, 1, 5, 0,16, 0.00,60.00,Thursday
7,30.2625
8,36.476908042361518
9,36.428636599090648
96,44.580677350575509
2,5, 1, 5, 0,17, 0.00,60.00,Thursday
7,29.187500000000005
8,36.45392769115722
9,36.57852372022046
96,44.193334636723488
2,5, 1, 5, 0,18, 0.00,60.00,Thursday
7,28.3875
8,35.448516475717038
9,35.703902719104117
96,46.366251247197748
2,5, 1, 5, 0,19, 0.00,60.00,Thursday
7,28.075
8,33.700292785316758
9,33.972287808766839
96,51.03707835067465
2,5, 1, 5, 0,20, 0.00,60.00,Thursday
7,27.6875
8,31.909767987644174
9,32.110583060887737
96,56.65930538253291
2,5, 1, 5, 0,21, 0.00,60.00,Thursday
7,27.312500000000005
8,30.343169314185404
9,30.488063659347394
96,62.16016083519716
2,5, 1, 5, 0,22, 0.00,60.00,Thursday
7,27.2
8,29.025440182468694
9,29.140567014747537
96,67.20148506035038
2,5, 1, 5, 0,23, 0.00,60.00,Thursday
7,27.137500000000004
8,27.920734998941084
9,28.007786720526395
96,71.78213713440283
2,5, 1, 5, 0,24, 0.00,60.00,Thursday
7,26.85
8,26.987460668622974
9,27.068713212441467
96,75.8423976234485
2,6, 1, 6, 0, 1, 0.00,60.00,Friday
7,26.637500000000004
8,26.21201489255526
9,26.290021308726595
96,79.38748735241109
2,6, 1, 6, 0, 2, 0.00,60.00,Friday
7,26.6
8,25.554371370455937
9,25.633304609710608
96,82.5028015914651
2,6, 1, 6, 0, 3, 0.00,60.00,Friday
7,26.0375
8,24.966604779654316
9,25.053444881345205
96,85.34558790682694
2,6, 1, 6, 0, 4, 0.00,60.00,Friday
7,25.637500000000004
8,24.434771559945547
9,24.528236633581096
96,88.04568845734019
2,6, 1, 6, 0, 5, 0.00,60.00,Friday
7,25.225
8,23.932176794580454
9,24.03601059535999
96,90.67912193267401
2,6, 1, 6, 0, 6, 0.00,60.00,Friday
7,25.0625
8,23.49816535064348
9,23.595096230432686
96,93.1286539116097
2,6, 1, 6, 0, 7, 0.00,60.00,Friday
7,25.0375
8,23.334042181073344
9,23.388121868610449
96,94.32428720594965
2,6, 1, 6, 0, 8, 0.00,60.00,Friday
7,25.125000000000005
8,23.79707191133433
9,23.802965745393487
96,92.05565336308709
2,6, 1, 6, 0, 9, 0.00,60.00,Friday
7,25.5125
8,25.056801162979899
9,24.99614474327407
96,85.78173468514845
2,6, 1, 6, 0,10, 0.00,60.00,Friday
7,27.200000000000004
8,26.862862757798376
9,26.8113814965348
96,77.07387796492964
2,6, 1, 6, 0,11, 0.00,60.00,Friday
7,29.4125
8,28.801077046463399
9,28.750350946662985
96,68.81731879536045
2,6, 1, 6, 0,12, 0.00,60.00,Friday
7,30.825
8,30.596653679840565
9,30.50309715570391
96,62.18256984377123
2,6, 1, 6, 0,13, 0.00,60.00,Friday
7,31.450000000000004
8,32.235225739908859
9,32.06652480352476
96,56.865272906516967
2,6, 1, 6, 0,14, 0.00,60.00,Friday
7,31.9125
8,33.89027803953235
9,33.66481800118695
96,51.95246330743109
2,6, 1, 6, 0,15, 0.00,60.00,Friday
7,31.5375
8,35.524118474172777
9,35.339897911814137
96,47.30127966896636
2,6, 1, 6, 0,16, 0.00,60.00,Friday
7,31.2
8,36.709729291990608
9,36.68814192641483
96,43.882332670255049
2,6, 1, 6, 0,17, 0.00,60.00,Friday
7,30.575
8,36.9547316433581
9,37.160395991802527
96,42.73436244907445
2,6, 1, 6, 0,18, 0.00,60.00,Friday
7,29.575
8,35.82365134173822
9,36.21956615646715
96,44.992568786562809
2,6, 1, 6, 0,19, 0.00,60.00,Friday
7,28.45
8,33.919624202534837
9,34.266541124259259
96,50.143911793943299
2,6, 1, 6, 0,20, 0.00,60.00,Friday
7,27.500000000000005
8,32.00581390678632
9,32.23589055439414
96,56.20944067278674
2,6, 1, 6, 0,21, 0.00,60.00,Friday
7,27.2
8,30.33637561120368
9,30.50170360992633
96,62.05116988550487
2,6, 1, 6, 0,22, 0.00,60.00,Friday
7,27.3875
8,28.940078703191664
9,29.071687902036339
96,67.39402503674713
2,6, 1, 6, 0,23, 0.00,60.00,Friday
7,27.312500000000005
8,27.790416019970647
9,27.892260936166598
96,72.19206318552301
2,6, 1, 6, 0,24, 0.00,60.00,Friday
7,27.2
8,26.83540990801526
9,26.927238640150148
96,76.3961254969102
2,7, 1, 7, 0, 1, 0.00,60.00,Saturday
7,27.2
8,26.043992640062166
9,26.133997067684896
96,80.02686719289143
2,7, 1, 7, 0, 2, 0.00,60.00,Saturday
7,27.137500000000004
8,25.392100768734009
9,25.483665493533875
96,83.13248630826587
2,7, 1, 7, 0, 3, 0.00,60.00,Saturday
7,27.1
8,24.85074619415164
9,24.944794238418216
96,85.8064628216307
2,7, 1, 7, 0, 4, 0.00,60.00,Saturday
7,27.0375
8,24.39463909209867
9,24.499217102405177
96,88.10718533155569
2,7, 1, 7, 0, 5, 0.00,60.00,Saturday
7,27.0
8,23.98797574723621
9,24.11156593009987
96,90.17767816280781
2,7, 1, 7, 0, 6, 0.00,60.00,Saturday
7,26.812500000000005
8,23.663031253986686
9,23.793372313260428
96,91.9280110453987
2,7, 1, 7, 0, 7, 0.00,60.00,Saturday
7,26.637500000000004
8,23.777775084961559
9,23.906193592943195
96,91.3489594235135
2,7, 1, 7, 0, 8, 0.00,60.00,Saturday
7,26.9125
8,24.610882736394289
9,24.717598916602847
96,87.08730220275513
2,7, 1, 7, 0, 9, 0.00,60.00,Saturday
7,27.35
8,26.02981139236917
9,26.193418028799614
96,79.84396594920959
2,7, 1, 7, 0,10, 0.00,60.00,Saturday
7,28.75
8,27.72243021642356
9,27.859926424411456
96,72.42171157033603
2,7, 1, 7, 0,11, 0.00,60.00,Saturday
7,29.8125
8,29.409570552778435
9,29.458021282613659
96,66.00674625074923
2,7, 1, 7, 0,12, 0.00,60.00,Saturday
7,30.625
8,30.94107125863347
9,30.877110132359584
96,60.83421204221945
2,7, 1, 7, 0,13, 0.00,60.00,Saturday
7,31.437500000000005
8,32.31385533802411
9,32.16175512559573
96,56.5200973401679
2,7, 1, 7, 0,14, 0.00,60.00,Saturday
7,30.6375
8,33.44702874565292
9,33.282409437029098
96,53.03358362717037
2,7, 1, 7, 0,15, 0.00,60.00,Saturday
7,31.062500000000005
8,34.42600532263591
9,34.275337296420207
96,50.130666582605488
2,7, 1, 7, 0,16, 0.00,60.00,Saturday
7,31.575
8,35.3848570903221
9,35.315040610046327
96,47.28683319821319
2,7, 1, 7, 0,17, 0.00,60.00,Saturday
7,30.9375
8,35.98592191672217
9,36.125000800667127
96,45.21821605559661
2,7, 1, 7, 0,18, 0.00,60.00,Saturday
7,29.9125
8,35.20382225559138
9,35.60818467927951
96,46.547251499222429
2,7, 1, 7, 0,19, 0.00,60.00,Saturday
7,28.5625
8,33.43111678934551
9,33.80972284983898
96,51.46073720204103
2,7, 1, 7, 0,20, 0.00,60.00,Saturday
7,27.4375
8,31.539738019469327
9,31.79918944594783
96,57.63436359139758
2,7, 1, 7, 0,21, 0.00,60.00,Saturday
7,27.0375
8,29.8771528176885
9,30.068921272537517
96,63.62737625730381
2,7, 1, 7, 0,22, 0.00,60.00,Saturday
7,27.0
8,28.48243982339487
9,28.642309595135289
96,69.11962143548402
2,7, 1, 7, 0,23, 0.00,60.00,Saturday
7,26.812500000000005
8,27.32459875554286
9,27.45571940898771
96,74.09302474815681
2,7, 1, 7, 0,24, 0.00,60.00,Saturday
7,26.7
8,26.362634196730967
9,26.482958661958688
96,78.43374037967149
2,8, 1, 8, 0, 1, 0.00,60.00,Sunday
7,26.637500000000004
8,25.542477990915019
9,25.665636784998989
96,82.29255058690171
2,8, 1, 8, 0, 2, 0.00,60.00,Sunday
7,26.5375
8,24.84818408263634
9,24.97507818187438
96,85.6909205702197
2,8, 1, 8, 0, 3, 0.00,60.00,Sunday
7,26.25
8,24.261039968784734
9,24.397653241047789
96,88.6712565330374
2,8, 1, 8, 0, 4, 0.00,60.00,Sunday
7,25.85
8,23.731821302893726
9,23.8841458347969
96,91.42224509610085
2,8, 1, 8, 0, 5, 0.00,60.00,Sunday
7,25.075
8,23.23862235880555
9,23.40677369766204
96,94.0795020355915
2,8, 1, 8, 0, 6, 0.00,60.00,Sunday
7,24.7
8,22.853134501043664
9,23.00612092619261
96,96.4100940752264
2,8, 1, 8, 0, 7, 0.00,60.00,Sunday
7,24.637500000000004
8,22.93242064532734
9,23.049710210801316
96,96.22476262610266
2,8, 1, 8, 0, 8, 0.00,60.00,Sunday
7,25.475
8,23.870200172320734
9,23.961939182456445
96,91.18787523896609
2,8, 1, 8, 0, 9, 0.00,60.00,Sunday
7,27.375000000000005
8,25.66644708220931
9,25.899567759604467
96,81.32115141413053
2,8, 1, 8, 0,10, 0.00,60.00,Sunday
7,28.3875
8,27.840133228121908
9,28.06971698542063
96,71.60455286806428
2,8, 1, 8, 0,11, 0.00,60.00,Sunday
7,29.562500000000005
8,29.914199371997794
9,30.026239425813459
96,63.92989441715621
2,8, 1, 8, 0,12, 0.00,60.00,Sunday
7,30.450000000000004
8,31.83237903614997
9,31.816715012945268
96,57.69541890847856
2,8, 1, 8, 0,13, 0.00,60.00,Sunday
7,30.9125
8,33.66551622256959
9,33.55648123995297
96,52.28570305355608
2,8, 1, 8, 0,14, 0.00,60.00,Sunday
7,31.725
8,35.369467312107868
9,35.197859765539778
96,47.696880972916407
2,8, 1, 8, 0,15, 0.00,60.00,Sunday
7,31.7875
8,36.810117503500247
9,36.65110087722201
96,43.99671354532887
2,8, 1, 8, 0,16, 0.00,60.00,Sunday
7,30.725
8,37.83098286996521
9,37.81515208422132
96,41.26196101153213
2,8, 1, 8, 0,17, 0.00,60.00,Sunday
7,30.3875
8,38.08502867896735
9,38.27066282936326
96,40.24357912335319
2,8, 1, 8, 0,18, 0.00,60.00,Sunday
7,29.5625
8,36.96216088738566
9,37.36469636804383
96,42.28689188605313
2,8, 1, 8, 0,19, 0.00,60.00,Sunday
7,28.375
8,34.92650120251004
9,35.31196246025604
96,47.34547403833807
2,8, 1, 8, 0,20, 0.00,60.00,Sunday
7,27.6875
8,32.81638409484236
9,33.08772381207004
96,53.59496929639363
2,8, 1, 8, 0,21, 0.00,60.00,Sunday
7,27.312500000000005
8,30.955162329975406
9,31.140983696882559
96,59.85173365255654
2,8, 1, 8, 0,22, 0.00,60.00,Sunday
7,27.075
8,29.38291993506665
9,29.528803936027648
96,65.67805387818001
2,8, 1, 8, 0,23, 0.00,60.00,Sunday
7,27.0
8,28.088407155995076
9,28.211487762452174
96,70.89311546808915
2,8, 1, 8, 0,24, 0.00,60.00,Sunday
7,26.812500000000005
8,27.019324128810689
9,27.123171873109123
96,75.53231930577505
2,9, 1, 9, 0, 1, 0.00,60.00,Monday
7,26.7
8,26.12877493044815
9,26.231341680666604
96,79.56876211240506
2,9, 1, 9, 0, 2, 0.00,60.00,Monday
7,26.637500000000004
8,25.390724171130807
9,25.494659781251863
96,83.0735521919015
2,9, 1, 9, 0, 3, 0.00,60.00,Monday
7,26.5375
8,24.768621252655906
9,24.87809385236575
96,86.16171342059389
2,9, 1, 9, 0, 4, 0.00,60.00,Monday
7,26.5
8,24.252656696736204
9,24.362392152953487
96,88.8637317294037
2,9, 1, 9, 0, 5, 0.00,60.00,Monday
7,25.375000000000005
8,23.797660245288897
9,23.925535439329864
96,91.23088644048429
2,9, 1, 9, 0, 6, 0.00,60.00,Monday
7,25.6375
8,23.452017462354143
9,23.55998037757832
96,93.2853101406171
2,9, 1, 9, 0, 7, 0.00,60.00,Monday
7,23.7
8,23.46722114828601
9,23.55667558907552
96,93.38360351710968
2,9, 1, 9, 0, 8, 0.00,60.00,Monday
7,22.7
8,24.02029273350645
9,24.11854913394614
96,90.36335924348257
2,9, 1, 9, 0, 9, 0.00,60.00,Monday
7,24.687500000000005
8,25.16573330264785
9,25.26329214453841
96,84.44609863501622
2,9, 1, 9, 0,10, 0.00,60.00,Monday
7,26.95
8,26.722567634259709
9,26.84300079325473
96,76.92929591591727
2,9, 1, 9, 0,11, 0.00,60.00,Monday
7,29.200000000000004
8,28.428319491012844
9,28.481237475207796
96,69.88093134551183
2,9, 1, 9, 0,12, 0.00,60.00,Monday
7,27.6625
8,30.082417474049234
9,30.055328090547829
96,63.79987633505211
2,9, 1, 9, 0,13, 0.00,60.00,Monday
7,27.0125
8,31.742988709072816
9,31.62963839177603
96,58.322095206709608
2,9, 1, 9, 0,14, 0.00,60.00,Monday
7,26.687500000000005
8,33.5065424365524
9,33.314389830820889
96,53.02042382839568
2,9, 1, 9, 0,15, 0.00,60.00,Monday
7,26.762500000000004
8,35.18724747606236
9,35.027045045335267
96,48.1662184967181
2,9, 1, 9, 0,16, 0.00,60.00,Monday
7,29.0375
8,36.474193107080868
9,36.47211095533098
96,44.44333679680649
2,9, 1, 9, 0,17, 0.00,60.00,Monday
7,29.575
8,36.849554714350997
9,37.07303588751579
96,42.9782223854576
2,9, 1, 9, 0,18, 0.00,60.00,Monday
7,28.7625
8,35.82192668116402
9,36.23762847945197
96,44.98996469446476
2,9, 1, 9, 0,19, 0.00,60.00,Monday
7,27.875
8,33.988014971893829
9,34.369030437354918
96,49.89907776642653
2,9, 1, 9, 0,20, 0.00,60.00,Monday
7,27.25
8,32.11621679889501
9,32.38437178070835
96,55.785012202218208
2,9, 1, 9, 0,21, 0.00,60.00,Monday
7,27.0375
8,30.46012822398923
9,30.632100717968439
96,61.65070380475594
2,9, 1, 9, 0,22, 0.00,60.00,Monday
7,27.0
8,29.061385791593687
9,29.18960620982115
96,67.0092929505154
2,9, 1, 9, 0,23, 0.00,60.00,Monday
7,27.0
8,27.902557670223727
9,27.99785186307765
96,71.81331119188086
2,9, 1, 9, 0,24, 0.00,60.00,Monday
7,27.0
8,26.935283827637094
9,27.019682447853258
96,76.03765573241742
2,10, 1,10, 0, 1, 0.00,60.00,Tuesday
7,26.812500000000005
8,26.119647265465376
9,26.203438720211083
96,79.75924472610453
2,10, 1,10, 0, 2, 0.00,60.00,Tuesday
7,26.575
8,25.43819861330369
9,25.522288281608117
96,83.00234941744752
2,10, 1,10, 0, 3, 0.00,60.00,Tuesday
7,26.5625
8,24.88307524837056
9,24.96212616633869
96,85.78742453422493
2,10, 1,10, 0, 4, 0.00,60.00,Tuesday
7,26.35
8,24.435724430296756
9,24.513018673338615
96,88.10066778965407
2,10, 1,10, 0, 5, 0.00,60.00,Tuesday
7,26.2
8,24.06153926485853
9,24.143678457273567
96,90.07580035429464
2,10, 1,10, 0, 6, 0.00,60.00,Tuesday
7,26.075
8,23.753581687417399
9,23.831788677847468
96,91.7967893279388
2,10, 1,10, 0, 7, 0.00,60.00,Tuesday
7,25.6875
8,23.75077700304969
9,23.800815674059288
96,92.00255949302587
2,10, 1,10, 0, 8, 0.00,60.00,Tuesday
7,25.8125
8,24.334521202151629
9,24.3630286660239
96,89.00926204306872
2,10, 1,10, 0, 9, 0.00,60.00,Tuesday
7,26.125000000000005
8,25.533328024257267
9,25.519872074524629
96,83.15553705023337
2,10, 1,10, 0,10, 0.00,60.00,Tuesday
7,26.2
8,27.112186136936559
9,27.09413310839465
96,75.82060705333889
2,10, 1,10, 0,11, 0.00,60.00,Tuesday
7,25.825000000000004
8,28.702949133690426
9,28.653063530877277
96,69.24252222551745
2,10, 1,10, 0,12, 0.00,60.00,Tuesday
7,24.725
8,29.98133949309253
9,29.925503594066904
96,64.32999821161313
2,10, 1,10, 0,13, 0.00,60.00,Tuesday
7,24.762500000000004
8,30.97026994461631
9,30.871296527399769
96,60.91906100514165
2,10, 1,10, 0,14, 0.00,60.00,Tuesday
7,26.0375
8,31.980914475121403
9,31.825444914857177
96,57.6735472887361
2,10, 1,10, 0,15, 0.00,60.00,Tuesday
7,26.5375
8,32.90097862583907
9,32.757056609801768
96,54.67292550994337
2,10, 1,10, 0,16, 0.00,60.00,Tuesday
7,26.8125
8,33.54041236160852
9,33.443665019933209
96,52.571445090448907
2,10, 1,10, 0,17, 0.00,60.00,Tuesday
7,27.0
8,33.842752970941
9,33.86587765495928
96,51.331579578999349
2,10, 1,10, 0,18, 0.00,60.00,Tuesday
7,27.0
8,33.25287551523549
9,33.478040581109357
96,52.46240640788291
2,10, 1,10, 0,19, 0.00,60.00,Tuesday
7,26.500000000000005
8,31.824952925717328
9,32.08719857698777
96,56.76137065601513
2,10, 1,10, 0,20, 0.00,60.00,Tuesday
7,25.575
8,30.211777477270073
9,30.421402988286645
96,62.42110785706234
2,10, 1,10, 0,21, 0.00,60.00,Tuesday
7,25.075
8,28.750233600938694
9,28.916614693817743
96,68.10583553826253
2,10, 1,10, 0,22, 0.00,60.00,Tuesday
7,24.812500000000005
8,27.495029982852789
9,27.634108150710799
96,73.43886582199574
2,10, 1,10, 0,23, 0.00,60.00,Tuesday
7,24.8875
8,26.439051995074224
9,26.551618870266429
96,78.27480442113955
2,10, 1,10, 0,24, 0.00,60.00,Tuesday
7,25.0625
8,25.555719943446627
9,25.661595707616227
96,82.5154286525112
2,11, 1,11, 0, 1, 0.00,60.00,Wednesday
7,25.1
8,24.82794224553382
9,24.927351356049383
96,86.1949500034601
2,11, 1,11, 0, 2, 0.00,60.00,Wednesday
7,24.225
8,24.198269909574987
9,24.300921717517555
96,89.4146544110096
2,11, 1,11, 0, 3, 0.00,60.00,Wednesday
7,22.700000000000004
8,23.580671794470505
9,23.689844266347899
96,92.67855806764953
2,11, 1,11, 0, 4, 0.00,60.00,Wednesday
7,21.85
8,22.977858749489856
9,23.0819534749035
96,96.08581457974459
2,11, 1,11, 0, 5, 0.00,60.00,Wednesday
7,21.7
8,22.41890994182821
9,22.51746854424626
96,99.25405453634751
2,11, 1,11, 0, 6, 0.00,60.00,Wednesday
7,21.637500000000004
8,21.96749100720412
9,22.04342759015576
96,100.0
2,11, 1,11, 0, 7, 0.00,60.00,Wednesday
7,21.6625
8,21.917605974959775
9,21.953975982656134
96,99.65599377821005
2,11, 1,11, 0, 8, 0.00,60.00,Wednesday
7,23.1375
8,22.580509170030923
9,22.608848758438243
96,95.83483004899066
2,11, 1,11, 0, 9, 0.00,60.00,Wednesday
7,25.875
8,23.962547807259189
9,24.087766402362044
96,87.73156629421269
2,11, 1,11, 0,10, 0.00,60.00,Wednesday
7,27.9375
8,25.759809414514878
9,25.863705648059879
96,78.95314810703545
2,11, 1,11, 0,11, 0.00,60.00,Wednesday
7,29.250000000000005
8,27.744691845872319
9,27.76743145153946
96,70.59621548336256
2,11, 1,11, 0,12, 0.00,60.00,Wednesday
7,30.325
8,29.793486939594506
9,29.70198616412429
96,63.08442970186141
2,11, 1,11, 0,13, 0.00,60.00,Wednesday
7,30.8875
8,31.901528578909614
9,31.714584478195886
96,56.19902453986791
2,11, 1,11, 0,14, 0.00,60.00,Wednesday
7,31.0
8,33.99081163663759
9,33.751284868966838
96,50.0827750392696
2,11, 1,11, 0,15, 0.00,60.00,Wednesday
7,31.3125
8,35.754196731355339
9,35.5789520240889
96,45.216548645213048
2,11, 1,11, 0,16, 0.00,60.00,Wednesday
7,30.875
8,36.91176175874367
9,36.90062353735678
96,42.03163392480373
2,11, 1,11, 0,17, 0.00,60.00,Wednesday
7,30.1875
8,37.249386326364049
9,37.437361288543389
96,40.81181402401931
2,11, 1,11, 0,18, 0.00,60.00,Wednesday
7,29.187500000000005
8,36.19856240914782
9,36.60287480302523
96,42.72587218573704
2,11, 1,11, 0,19, 0.00,60.00,Wednesday
7,27.95
8,34.228643515220728
9,34.6088955241852
96,47.7095710625957
2,11, 1,11, 0,20, 0.00,60.00,Wednesday
7,27.1875
8,32.17903269523599
9,32.44078075599698
96,53.873643876384317
2,11, 1,11, 0,21, 0.00,60.00,Wednesday
7,26.75
8,30.36665415378694
9,30.548806004631147
96,60.00603072574744
2,11, 1,11, 0,22, 0.00,60.00,Wednesday
7,26.35
8,28.828749338465238
9,28.97333255765472
96,65.72910592099238
2,11, 1,11, 0,23, 0.00,60.00,Wednesday
7,26.075
8,27.53372866247326
9,27.659159167859618
96,70.9652966743154
2,11, 1,11, 0,24, 0.00,60.00,Wednesday
7,25.75
8,26.445111273276284
9,26.551521818026605