Program Version,EnergyPlus, Version 8.9.0-40101eaafd, YMD=2025.09.02 13:18
1,5,Environment Title[],Latitude[deg],Longitude[deg],Time Zone[],Elevation[m]
2,8,Day of Simulation[],Month[],Day of Month[],DST Indicator[1=yes 0=no],Hour[],StartMinute[],EndMinute[],DayType
3,5,Cumulative Day of Simulation[],Month[],Day of Month[],DST Indicator[1=yes 0=no],DayType  ! When Daily Report Variables Requested
4,2,Cumulative Days of Simulation[],Month[]  ! When Monthly Report Variables Requested
5,1,Cumulative Days of Simulation[] ! When Run Period Report Variables Requested
6,1,Calendar Year of Simulation[] ! When Annual Report Variables Requested
7,1,Environment,Site Outdoor Air Drybulb Temperature [C] !Hourly
8,1,ZONE DEFAULT,Zone Mean Radiant Temperature [C] !Hourly
9,1,ZONE DEFAULT,Zone Mean Air Temperature [C] !Hourly
96,1,ZONE DEFAULT,Zone Air Relative Humidity [%] !Hourly
End of Data Dictionary
1,TROPOS3D MODEL,  -3.78, -38.53,  -3.00,  25.00
2,1, 1, 1, 0, 1, 0.00,60.00,Sunday
7,26.75
8,25.3346279980044
9,25.423271176070455
96,82.45194351308061
2,1, 1, 1, 0, 2, 0.00,60.00,Sunday
7,26.0
8,24.714240770116406
9,24.815675610695185
96,85.37263299120147
2,1, 1, 1, 0, 3, 0.00,60.00,Sunday
7,26.0
8,24.18540612483261
9,24.290646116693027
96,88.06279721857763
2,1, 1, 1, 0, 4, 0.00,60.00,Sunday
7,25.812500000000005
8,23.725207059021245
9,23.840408024282718
96,90.47498170205951
2,1, 1, 1, 0, 5, 0.00,60.00,Sunday
7,25.45
8,23.315278342621889
9,23.445513257163677
96,92.65234483733
2,1, 1, 1, 0, 6, 0.00,60.00,Sunday
7,25.1125
8,22.965965722388355
9,23.10294200271701
96,94.64752070575699
2,1, 1, 1, 0, 7, 0.00,60.00,Sunday
7,25.437500000000005
8,22.963394595702117
9,23.054585132360637
96,94.95994863380946
2,1, 1, 1, 0, 8, 0.00,60.00,Sunday
7,26.075
8,23.815816006005723
9,23.79170293783583
96,90.85271306248198
2,1, 1, 1, 0, 9, 0.00,60.00,Sunday
7,26.7375
8,25.625116619244797
9,25.559684371498827
96,81.82689344932644
2,1, 1, 1, 0,10, 0.00,60.00,Sunday
7,27.625
8,27.681842814244037
9,27.59990801970254
96,72.58083989172417
2,1, 1, 1, 0,11, 0.00,60.00,Sunday
7,28.625
8,29.44941567878642
9,29.31175287888147
96,65.69786776225083
2,1, 1, 1, 0,12, 0.00,60.00,Sunday
7,29.625
8,31.00493679290571
9,30.783788745305509
96,60.37226773066894
2,1, 1, 1, 0,13, 0.00,60.00,Sunday
7,29.812500000000005
8,32.364502555584838
9,32.1146220991495
96,55.974816540697997
2,1, 1, 1, 0,14, 0.00,60.00,Sunday
7,29.45
8,33.428349001273598
9,33.23827819167165
96,52.53876100159616
2,1, 1, 1, 0,15, 0.00,60.00,Sunday
7,29.1125
8,34.265485071092459
9,34.105753118174998
96,50.05329263300573
2,1, 1, 1, 0,16, 0.00,60.00,Sunday
7,28.812500000000005
8,34.91928952200705
9,34.87267502730987
96,47.963492911352847
2,1, 1, 1, 0,17, 0.00,60.00,Sunday
7,28.45
8,34.81203347586781
9,34.922757578118339
96,47.83023329372141
2,1, 1, 1, 0,18, 0.00,60.00,Sunday
7,28.1125
8,33.785086307454147
9,34.02467660480461
96,50.287928395082719
2,1, 1, 1, 0,19, 0.00,60.00,Sunday
7,27.812500000000005
8,32.119970453814087
9,32.3479870707046
96,55.255334784465947
2,1, 1, 1, 0,20, 0.00,60.00,Sunday
7,27.45
8,30.460545880000347
9,30.63094311364904
96,60.90673928194954
2,1, 1, 1, 0,21, 0.00,60.00,Sunday
7,27.1125
8,29.019097084258627
9,29.15622431666302
96,66.28528605116242
2,1, 1, 1, 0,22, 0.00,60.00,Sunday
7,27.187499999999998
8,27.80073451803745
9,27.9077277098052
96,71.26106841962798
2,1, 1, 1, 0,23, 0.00,60.00,Sunday
7,27.55
8,26.81120807171537
9,26.884128123225673
96,75.65615181756877
2,1, 1, 1, 0,24, 0.00,60.00,Sunday
7,27.8875
8,26.029338337122966
9,26.08667470395114
96,79.34262336697123
2,2, 1, 2, 0, 1, 0.00,60.00,Monday
7,27.812500000000005
8,25.389732081449958
9,25.463593753187518
96,82.35569682001543
2,2, 1, 2, 0, 2, 0.00,60.00,Monday
7,27.45
8,24.829918993957443
9,24.931262253777189
96,85.00619001665412
2,2, 1, 2, 0, 3, 0.00,60.00,Monday
7,27.1125
8,24.320231731528538
9,24.45094485319434
96,87.48074547285884
2,2, 1, 2, 0, 4, 0.00,60.00,Monday
7,26.562499999999998
8,23.846409240478847
9,24.00739864555633
96,89.78260913536303
2,2, 1, 2, 0, 5, 0.00,60.00,Monday
7,25.925
8,23.420661149151028
9,23.60431188936661
96,91.95183565472628
2,2, 1, 2, 0, 6, 0.00,60.00,Monday
7,25.2625
8,23.068821792203928
9,23.252654326456559
96,93.9227861057864
2,2, 1, 2, 0, 7, 0.00,60.00,Monday
7,25.812499999999998
8,23.181010572108265
9,23.292570881933317
96,93.69832766079023
2,2, 1, 2, 0, 8, 0.00,60.00,Monday
7,27.175
8,24.031969682019047
9,24.064385846262348
96,89.45553122587433
2,2, 1, 2, 0, 9, 0.00,60.00,Monday
7,28.5125
8,25.731286761357354
9,25.65659591793294
96,81.43573635576021
2,2, 1, 2, 0,10, 0.00,60.00,Monday
7,29.437500000000005
8,27.888234661739277
9,27.753457760854095
96,72.0092281551232
2,2, 1, 2, 0,11, 0.00,60.00,Monday
7,30.075
8,29.90757389888923
9,29.704209662285835
96,64.34451085908843
2,2, 1, 2, 0,12, 0.00,60.00,Monday
7,30.7375
8,31.859772620820885
9,31.598373851570359
96,57.798455825323468
2,2, 1, 2, 0,13, 0.00,60.00,Monday
7,31.0
8,33.38018295584884
9,33.14465017584591
96,52.91363946845516
2,2, 1, 2, 0,14, 0.00,60.00,Monday
7,31.0
8,34.595678933097229
9,34.34318829518255
96,49.42127886401218
2,2, 1, 2, 0,15, 0.00,60.00,Monday
7,31.0
8,35.78492100235033
9,35.606850131357287
96,46.0369947818328
2,2, 1, 2, 0,16, 0.00,60.00,Monday
7,30.375
8,36.43134298710564
9,36.4373952204145
96,43.96121311044638
2,2, 1, 2, 0,17, 0.00,60.00,Monday
7,29.375
8,36.18392420000679
9,36.34894582426111
96,44.175691440522417
2,2, 1, 2, 0,18, 0.00,60.00,Monday
7,28.375
8,34.9541862557525
9,35.26404395888547
96,46.90692465532382
2,2, 1, 2, 0,19, 0.00,60.00,Monday
7,27.812500000000005
8,33.02191408066515
9,33.32422465192829
96,52.2611715692815
2,2, 1, 2, 0,20, 0.00,60.00,Monday
7,27.45
8,31.12541585011944
9,31.345798322956335
96,58.42453855417462
2,2, 1, 2, 0,21, 0.00,60.00,Monday
7,27.1125
8,29.520879572310475
9,29.683337528818279
96,64.28149038965812
2,2, 1, 2, 0,22, 0.00,60.00,Monday
7,26.812500000000005
8,28.188239617058188
9,28.320341155456498
96,69.5717976931746
2,2, 1, 2, 0,23, 0.00,60.00,Monday
7,26.45
8,27.09511452593307
9,27.194061722699936
96,74.29436243567818
2,2, 1, 2, 0,24, 0.00,60.00,Monday
7,26.1125
8,26.188291688317407
9,26.277780853421957
96,78.40569949819559
2,3, 1, 3, 0, 1, 0.00,60.00,Tuesday
7,26.0
8,25.437828063027426
9,25.515647743966807
96,81.9200332195824
2,3, 1, 3, 0, 2, 0.00,60.00,Tuesday
7,26.0
8,24.81641979876258
9,24.88208343607903
96,85.00362073071897
2,3, 1, 3, 0, 3, 0.00,60.00,Tuesday
7,26.0
8,24.290751562531413
9,24.360343268344218
96,87.64110550683026
2,3, 1, 3, 0, 4, 0.00,60.00,Tuesday
7,26.0
8,23.83346207232674
9,23.91137137271895
96,90.00029561831114
2,3, 1, 3, 0, 5, 0.00,60.00,Tuesday
7,25.812500000000005
8,23.424006692464734
9,23.513862500815625
96,92.23705202820107
2,3, 1, 3, 0, 6, 0.00,60.00,Tuesday
7,25.45
8,23.076117093873383
9,23.16779224051348
96,94.21846286663143
2,3, 1, 3, 0, 7, 0.00,60.00,Tuesday
7,25.1125
8,23.22269385852781
9,23.260238293555358
96,93.75607097320803
2,3, 1, 3, 0, 8, 0.00,60.00,Tuesday
7,26.875
8,24.33249822823216
9,24.38898405199265
96,87.67001894313474
2,3, 1, 3, 0, 9, 0.00,60.00,Tuesday
7,28.625
8,26.156120929434903
9,26.230605826768309
96,78.5908830574405
2,3, 1, 3, 0,10, 0.00,60.00,Tuesday
7,29.625
8,28.385612846337826
9,28.37173379081063
96,69.33003219095925
2,3, 1, 3, 0,11, 0.00,60.00,Tuesday
7,30.625
8,30.615678300805678
9,30.48613869252124
96,61.4035951028748
2,3, 1, 3, 0,12, 0.00,60.00,Tuesday
7,31.0
8,32.65627483731974
9,32.430288000455899
96,54.93529225709623
2,3, 1, 3, 0,13, 0.00,60.00,Tuesday
7,31.625
8,34.54443844621697
9,34.28983377171695
96,49.46190419297302
2,3, 1, 3, 0,14, 0.00,60.00,Tuesday
7,31.375
8,36.10723242201706
9,35.88707713389518
96,45.274111818499338
2,3, 1, 3, 0,15, 0.00,60.00,Tuesday
7,31.0
8,37.28133806612378
9,37.11836129826682
96,42.321356150405978
2,3, 1, 3, 0,16, 0.00,60.00,Tuesday
7,31.0
8,38.061674093274238
9,38.0457546931081
96,40.21451333955749
2,3, 1, 3, 0,17, 0.00,60.00,Tuesday
7,29.75
8,37.86140898143354
9,38.04303392473537
96,40.20557105331039
2,3, 1, 3, 0,18, 0.00,60.00,Tuesday
7,28.375
8,36.53711725123556
9,36.86500729555217
96,42.90546039943776
2,3, 1, 3, 0,19, 0.00,60.00,Tuesday
7,27.375
8,34.43147047702064
9,34.75020964956511
96,48.228892719970819
2,3, 1, 3, 0,20, 0.00,60.00,Tuesday
7,27.0
8,32.31915871285053
9,32.553811746962789
96,54.55076424234476
2,3, 1, 3, 0,21, 0.00,60.00,Tuesday
7,27.0
8,30.518174867745488
9,30.696060959658334
96,60.623011822853218
2,3, 1, 3, 0,22, 0.00,60.00,Tuesday
7,26.874999999999998
8,29.031195898661275
9,29.170922516262654
96,66.20521157511925
2,3, 1, 3, 0,23, 0.00,60.00,Tuesday
7,26.6125
8,27.813854661031458
9,27.92162941300064
96,71.15875136191588
2,3, 1, 3, 0,24, 0.00,60.00,Tuesday
7,26.374999999999998
8,26.810941723932637
9,26.894413730717333
96,75.53581948942787
2,4, 1, 4, 0, 1, 0.00,60.00,Wednesday
7,26.1125
8,25.975505520255195
9,26.0484212195234
96,79.39556803397906
2,4, 1, 4, 0, 2, 0.00,60.00,Wednesday
7,26.0
8,25.287398139123409
9,25.34390637550136
96,82.78046032557512
2,4, 1, 4, 0, 3, 0.00,60.00,Wednesday
7,26.0
8,24.727362656387006
9,24.776500707677387
96,85.62507635816613
2,4, 1, 4, 0, 4, 0.00,60.00,Wednesday
7,26.187499999999998
8,24.28646695658364
9,24.33443027931785
96,87.91800490172904
2,4, 1, 4, 0, 5, 0.00,60.00,Wednesday
7,26.55
8,23.946600617103774
9,24.0014002977806
96,89.69135562301857
2,4, 1, 4, 0, 6, 0.00,60.00,Wednesday
7,26.8875
8,23.70566083436453
9,23.76713777702787
96,91.01919466141178
2,4, 1, 4, 0, 7, 0.00,60.00,Wednesday
7,27.437500000000005
8,23.896013775370684
9,23.922828237514709
96,90.20830277385521
2,4, 1, 4, 0, 8, 0.00,60.00,Wednesday
7,28.075
8,24.861302752265038
9,24.838122891427177
96,85.41445108263139
2,4, 1, 4, 0, 9, 0.00,60.00,Wednesday
7,28.7375
8,26.39716892562302
9,26.359862496734058
96,78.09848198538653
2,4, 1, 4, 0,10, 0.00,60.00,Wednesday
7,29.187499999999998
8,28.061635321261595
9,27.955675757426488
96,71.10218100977801
2,4, 1, 4, 0,11, 0.00,60.00,Wednesday
7,29.55
8,29.68127013787401
9,29.49156895862428
96,65.0184484624425
2,4, 1, 4, 0,12, 0.00,60.00,Wednesday
7,29.8875
8,31.09499800686763
9,30.85373775603361
96,60.1283053800442
2,4, 1, 4, 0,13, 0.00,60.00,Wednesday
7,30.0
8,32.441212213772619
9,32.15576729961829
96,55.81234543655835
2,4, 1, 4, 0,14, 0.00,60.00,Wednesday
7,30.0
8,33.621264867535987
9,33.41483177724876
96,51.94003560994096
2,4, 1, 4, 0,15, 0.00,60.00,Wednesday
7,30.0
8,34.29285205719479
9,34.158013936569208
96,49.805664279408528
2,4, 1, 4, 0,16, 0.00,60.00,Wednesday
7,29.562499999999998
8,34.72292071290353
9,34.66555249954291
96,48.420397628150599
2,4, 1, 4, 0,17, 0.00,60.00,Wednesday
7,28.925
8,34.71944594359043
9,34.82340668145447
96,47.997849611624818
2,4, 1, 4, 0,18, 0.00,60.00,Wednesday
7,28.2625
8,33.817891624308007
9,34.07702047644497
96,50.04008347231331
2,4, 1, 4, 0,19, 0.00,60.00,Wednesday
7,27.812500000000005
8,32.181510340050618
9,32.456316564840509
96,54.810689372553
2,4, 1, 4, 0,20, 0.00,60.00,Wednesday
7,27.45
8,30.45609752267729
9,30.661888134792134
96,60.6812413617992
2,4, 1, 4, 0,21, 0.00,60.00,Wednesday
7,27.1125
8,28.969354555841695
9,29.126058835510905
96,66.31183143527915
2,4, 1, 4, 0,22, 0.00,60.00,Wednesday
7,26.812500000000005
8,27.72690749886796
9,27.85410794405977
96,71.41396643225734
2,4, 1, 4, 0,23, 0.00,60.00,Wednesday
7,26.45
8,26.69227858248775
9,26.79388213634816
96,75.98423402574049
2,4, 1, 4, 0,24, 0.00,60.00,Wednesday
7,26.1125
8,25.815655250728633
9,25.914033421190618
96,80.0302124930914
2,5, 1, 5, 0, 1, 0.00,60.00,Thursday
7,25.812500000000005
8,25.06916605660052
9,25.165367167869989
96,83.66538911750657
2,5, 1, 5, 0, 2, 0.00,60.00,Thursday
7,25.45
8,24.426220291435788
9,24.52457273436226
96,86.92565495598993
2,5, 1, 5, 0, 3, 0.00,60.00,Thursday
7,25.1125
8,23.860759558867778
9,23.96059280178889
96,89.91439354165125
2,5, 1, 5, 0, 4, 0.00,60.00,Thursday
7,24.812500000000005
8,23.361470515865816
9,23.465851077783385
96,92.57409118853966
2,5, 1, 5, 0, 5, 0.00,60.00,Thursday
7,24.45
8,22.918510849065578
9,23.028670844010425
96,95.0160303717359
2,5, 1, 5, 0, 6, 0.00,60.00,Thursday
7,24.1125
8,22.549380315889878
9,22.653538442420165
96,97.19985521783069
2,5, 1, 5, 0, 7, 0.00,60.00,Thursday
7,25.062500000000005
8,22.567379602111939
9,22.609012895776059
96,97.46314615860601
2,5, 1, 5, 0, 8, 0.00,60.00,Thursday
7,26.7
8,23.445704808056655
9,23.404765946684223
96,92.9614487473621
2,5, 1, 5, 0, 9, 0.00,60.00,Thursday
7,28.3625
8,25.196726547952836
9,25.141674362853555
96,83.88424024455154
2,5, 1, 5, 0,10, 0.00,60.00,Thursday
7,29.187499999999998
8,27.409839935382956
9,27.30519390230765
96,73.81575027751907
2,5, 1, 5, 0,11, 0.00,60.00,Thursday
7,29.55
8,29.766016651889676
9,29.60590689827549
96,64.55695788396889
2,5, 1, 5, 0,12, 0.00,60.00,Thursday
7,29.8875
8,31.95288787094696
9,31.750954373472906
96,57.10181995784926
2,5, 1, 5, 0,13, 0.00,60.00,Thursday
7,29.187500000000005
8,33.750616814377199
9,33.57383638408362
96,51.49242317662819
2,5, 1, 5, 0,14, 0.00,60.00,Thursday
7,27.825
8,35.1708001230287
9,35.014586473958988
96,47.473150798078339
2,5, 1, 5, 0,15, 0.00,60.00,Thursday
7,26.4875
8,36.16123576367065
9,36.09679591081268
96,44.70401516544577
2,5, 1, 5, 0,16, 0.00,60.00,Thursday
7,26.437500000000005
8,36.63574807160455
9,36.69250513693235
96,43.265958175580859
2,5, 1, 5, 0,17, 0.00,60.00,Thursday
7,27.075
8,36.457061969211888
9,36.66818947988281
96,43.323727348147958
2,5, 1, 5, 0,18, 0.00,60.00,Thursday
7,27.7375
8,35.47547633677122
9,35.856136899892579
96,45.304725816487117
2,5, 1, 5, 0,19, 0.00,60.00,Thursday
7,27.562499999999998
8,33.683696427198977
9,34.10183616330542
96,49.940841633012329
2,5, 1, 5, 0,20, 0.00,60.00,Thursday
7,26.925
8,31.681231968882856
9,32.022966445488467
96,56.15329915387592
2,5, 1, 5, 0,21, 0.00,60.00,Thursday
7,26.2625
8,29.88390923800958
9,30.136421410749123
96,62.57586966723862
2,5, 1, 5, 0,22, 0.00,60.00,Thursday
7,26.0
8,28.347229780292719
9,28.53636492002022
96,68.64235793374056
2,5, 1, 5, 0,23, 0.00,60.00,Thursday
7,26.0
8,27.075905821028777
9,27.224192639098303
96,74.09446325221939
2,5, 1, 5, 0,24, 0.00,60.00,Thursday
7,26.0
8,26.041253755901779
9,26.154170704018335
96,78.9044135012864
2,6, 1, 6, 0, 1, 0.00,60.00,Friday
7,25.812500000000005
8,25.18543199452376
9,25.289569659358678
96,82.99932804235267
2,6, 1, 6, 0, 2, 0.00,60.00,Friday
7,25.45
8,24.475510302325277
9,24.57260978122195
96,86.53717394501948
2,6, 1, 6, 0, 3, 0.00,60.00,Friday
7,25.1125
8,23.888701774322486
9,23.985894382914073
96,89.59959700578067
2,6, 1, 6, 0, 4, 0.00,60.00,Friday
7,24.562499999999998
8,23.374871197275409
9,23.48387326044945
96,92.34782869938889
2,6, 1, 6, 0, 5, 0.00,60.00,Friday
7,23.925
8,22.88582050424297
9,23.0116451662393
96,95.07940099656284
2,6, 1, 6, 0, 6, 0.00,60.00,Friday
7,23.2625
8,22.429975969053989
9,22.566317737818033
96,97.77790733286642
2,6, 1, 6, 0, 7, 0.00,60.00,Friday
7,24.062500000000005
8,22.34398826679119
9,22.410550244253728
96,98.74257201963133
2,6, 1, 6, 0, 8, 0.00,60.00,Friday
7,25.7
8,23.199906004958025
9,23.169871704912297
96,94.3871433818625
2,6, 1, 6, 0, 9, 0.00,60.00,Friday
7,27.3625
8,25.356695723531304
9,25.26026462878046
96,83.43534054720509
2,6, 1, 6, 0,10, 0.00,60.00,Friday
7,28.437500000000005
8,28.37745965159776
9,28.367431282120618
96,69.49400087875347
2,6, 1, 6, 0,11, 0.00,60.00,Friday
7,29.075
8,31.05300947487991
9,30.964634292363074
96,59.77499281746273
2,6, 1, 6, 0,12, 0.00,60.00,Friday
7,29.7375
8,33.19656222089377
9,33.109425236892537
96,52.942402102810408
2,6, 1, 6, 0,13, 0.00,60.00,Friday
7,30.187499999999998
8,34.70100095663855
9,34.634300039411218
96,48.57884486341502
2,6, 1, 6, 0,14, 0.00,60.00,Friday
7,30.55
8,35.808509301029577
9,35.67633640873192
96,45.81299646598045
2,6, 1, 6, 0,15, 0.00,60.00,Friday
7,30.8875
8,36.70542081423562
9,36.59084874729358
96,43.55265673648323
2,6, 1, 6, 0,16, 0.00,60.00,Friday
7,30.375
8,37.02547954739155
9,37.01770910435418
96,42.54691640011162
2,6, 1, 6, 0,17, 0.00,60.00,Friday
7,29.375
8,36.7394405125911
9,36.8924497877718
96,42.83966122777746
2,6, 1, 6, 0,18, 0.00,60.00,Friday
7,28.375
8,35.61579670250481
9,35.93838135201294
96,45.17753677209237
2,6, 1, 6, 0,19, 0.00,60.00,Friday
7,27.562499999999998
8,33.690209430370448
9,34.039777376029089
96,50.21618885045682
2,6, 1, 6, 0,20, 0.00,60.00,Friday
7,26.925
8,31.64820835953254
9,31.915291802414214
96,56.573107550671767
2,6, 1, 6, 0,21, 0.00,60.00,Friday
7,26.2625
8,29.892973294131644
9,30.08564670080446
96,62.81730773228272
2,6, 1, 6, 0,22, 0.00,60.00,Friday
7,25.874999999999998
8,28.43195263271513
9,28.58255579034795
96,68.48100066908296
2,6, 1, 6, 0,23, 0.00,60.00,Friday
7,25.7375
8,27.228053766971305
9,27.344571990826798
96,73.5720774907913
2,6, 1, 6, 0,24, 0.00,60.00,Friday
7,25.575
8,26.233361452976703
9,26.3263565200427
96,78.105371937206
2,7, 1, 7, 0, 1, 0.00,60.00,Saturday
7,25.374999999999998
8,25.404432013565005
9,25.48998856731592
96,82.0671386563176
2,7, 1, 7, 0, 2, 0.00,60.00,Saturday
7,25.2375
8,24.70716219834207
9,24.78839779155343
96,85.51313799582043
2,7, 1, 7, 0, 3, 0.00,60.00,Saturday
7,25.075
8,24.114739974985495
9,24.19285776849389
96,88.58161356041468
2,7, 1, 7, 0, 4, 0.00,60.00,Saturday
7,24.812500000000005
8,23.594689128336439
9,23.6743328100955
96,91.44164317320278
2,7, 1, 7, 0, 5, 0.00,60.00,Saturday
7,24.45
8,23.111571844268018
9,23.20388909587313
96,94.10844175075961
2,7, 1, 7, 0, 6, 0.00,60.00,Saturday
7,24.1125
8,22.680805163913328
9,22.774330491856256
96,96.64662391462615
2,7, 1, 7, 0, 7, 0.00,60.00,Saturday
7,25.062500000000005
8,22.846247997011539
9,22.8698518899144
96,96.13057355754809
2,7, 1, 7, 0, 8, 0.00,60.00,Saturday
7,26.7
8,23.905896536598417
9,23.987201254848146
96,89.88926433259083
2,7, 1, 7, 0, 9, 0.00,60.00,Saturday
7,28.3625
8,25.54275674804613
9,25.613979664909779
96,81.58723483684116
2,7, 1, 7, 0,10, 0.00,60.00,Saturday
7,29.625
8,27.806747926215399
9,27.783237696674463
96,71.82331364699306
2,7, 1, 7, 0,11, 0.00,60.00,Saturday
7,30.625
8,30.078499111992405
9,29.96290121339495
96,63.26432721709921
2,7, 1, 7, 0,12, 0.00,60.00,Saturday
7,31.625
8,32.35000880440829
9,32.14291141126715
96,55.85390128013289
2,7, 1, 7, 0,13, 0.00,60.00,Saturday
7,31.562499999999998
8,34.20677010618957
9,34.003017834355947
96,50.30276968225259
2,7, 1, 7, 0,14, 0.00,60.00,Saturday
7,30.925
8,35.52475383268124
9,35.338102106867
96,46.70605193919653
2,7, 1, 7, 0,15, 0.00,60.00,Saturday
7,30.2625
8,36.41670122186941
9,36.29930476405374
96,44.29698677854475
2,7, 1, 7, 0,16, 0.00,60.00,Saturday
7,29.562499999999998
8,36.79077877043342
9,36.783333445633839
96,43.13723581412187
2,7, 1, 7, 0,17, 0.00,60.00,Saturday
7,28.925
8,36.53793044670575
9,36.69155813753988
96,43.35500057700878
2,7, 1, 7, 0,18, 0.00,60.00,Saturday
7,28.2625
8,35.433090710825428
9,35.739458466752569
96,45.69049026259425
2,7, 1, 7, 0,19, 0.00,60.00,Saturday
7,27.812500000000005
8,33.60910794949653
9,33.92563838411422
96,50.53268631635811
2,7, 1, 7, 0,20, 0.00,60.00,Saturday
7,27.45
8,31.688718047875619
9,31.92536710987894
96,56.57239851964973
2,7, 1, 7, 0,21, 0.00,60.00,Saturday
7,27.1125
8,30.01730696056938
9,30.19677072389917
96,62.47771029773329
2,7, 1, 7, 0,22, 0.00,60.00,Saturday
7,26.812500000000005
8,28.593778292061449
9,28.743681949082189
96,67.91075186087602
2,7, 1, 7, 0,23, 0.00,60.00,Saturday
7,26.45
8,27.382056702165888
9,27.510002411509313
96,72.93579364035796
2,7, 1, 7, 0,24, 0.00,60.00,Saturday
7,26.1125
8,26.349671607345866
9,26.465086637647866
96,77.54652746234649
2,8, 1, 8, 0, 1, 0.00,60.00,Sunday
7,26.0
8,25.4756296748255
9,25.58851612708169
96,81.61924231946459
2,8, 1, 8, 0, 2, 0.00,60.00,Sunday
7,26.0
8,24.758807053216346
9,24.85872401846936
96,85.20821265275365
2,8, 1, 8, 0, 3, 0.00,60.00,Sunday
7,26.0
8,24.187173341458725
9,24.281628765413978
96,88.19816694725644
2,8, 1, 8, 0, 4, 0.00,60.00,Sunday
7,25.562499999999998
8,23.707689126865675
9,23.814140329106374
96,90.70831781081638
2,8, 1, 8, 0, 5, 0.00,60.00,Sunday
7,24.925
8,23.26613533848498
9,23.38951506086476
96,93.05870676753374
2,8, 1, 8, 0, 6, 0.00,60.00,Sunday
7,24.2625
8,22.8589989434932
9,22.990275473582199
96,95.39032323453373
2,8, 1, 8, 0, 7, 0.00,60.00,Sunday
7,25.25
8,22.89289968963881
9,22.958174821449778
96,95.61229358320964
2,8, 1, 8, 0, 8, 0.00,60.00,Sunday
7,27.25
8,23.988540917362977
9,23.964255946586478
96,90.07672314402029
2,8, 1, 8, 0, 9, 0.00,60.00,Sunday
7,29.25
8,26.07909600098334
9,26.044919879652963
96,79.68214048734814
2,8, 1, 8, 0,10, 0.00,60.00,Sunday
7,30.125000000000005
8,28.33470391404409
9,28.301580326996267
96,69.77331002503203
2,8, 1, 8, 0,11, 0.00,60.00,Sunday
7,30.2625
8,30.39273370531348
9,30.28065044117512
96,62.2135902019938
2,8, 1, 8, 0,12, 0.00,60.00,Sunday
7,30.425
8,32.38047551343193
9,32.20573011235713
96,55.7224405783073
2,8, 1, 8, 0,13, 0.00,60.00,Sunday
7,30.625000000000005
8,34.100575882815117
9,33.89847691306635
96,50.64678660522055
2,8, 1, 8, 0,14, 0.00,60.00,Sunday
7,30.7625
8,35.32689414197807
9,35.16390674128839
96,47.17215128710866
2,8, 1, 8, 0,15, 0.00,60.00,Sunday
7,30.925
8,36.00956284295836
9,35.87016009783389
96,45.35133046465124
2,8, 1, 8, 0,16, 0.00,60.00,Sunday
7,30.375
8,36.377544521924608
9,36.316087817069128
96,44.25345622434879
2,8, 1, 8, 0,17, 0.00,60.00,Sunday
7,29.375
8,35.919655185585977
9,35.99302114128733
96,45.04883740653618
2,8, 1, 8, 0,18, 0.00,60.00,Sunday
7,28.375
8,34.56264830944672
9,34.73520359467969
96,48.33025890266301
2,8, 1, 8, 0,19, 0.00,60.00,Sunday
7,27.812500000000005
8,32.84618642572546
9,33.00942210360154
96,53.23480736822383
2,8, 1, 8, 0,20, 0.00,60.00,Sunday
7,27.45
8,31.168624805675834
9,31.31343113748791
96,58.62018885674912
2,8, 1, 8, 0,21, 0.00,60.00,Sunday
7,27.1125
8,29.6831208877154
9,29.80856201471633
96,63.94373417627342
2,8, 1, 8, 0,22, 0.00,60.00,Sunday
7,27.0
8,28.415789708405549
9,28.51980849793896
96,68.86233475691765
2,8, 1, 8, 0,23, 0.00,60.00,Sunday
7,27.0
8,27.366889282770928
9,27.440241466199099
96,73.30219949554348
2,8, 1, 8, 0,24, 0.00,60.00,Sunday
7,27.0
8,26.50710109459531
9,26.565857713580266
96,77.16044340306529
2,9, 1, 9, 0, 1, 0.00,60.00,Monday
7,26.812500000000005
8,25.79428990306349
9,25.842273253741618
96,80.47754371702071
2,9, 1, 9, 0, 2, 0.00,60.00,Monday
7,26.45
8,25.1882984941048
9,25.242806016849316
96,83.30921661307244
2,9, 1, 9, 0, 3, 0.00,60.00,Monday
7,26.1125
8,24.671097372135106
9,24.731259086060957
96,85.85632502759575
2,9, 1, 9, 0, 4, 0.00,60.00,Monday
7,26.0
8,24.246402550136638
9,24.307553235538579
96,88.05968869665137
2,9, 1, 9, 0, 5, 0.00,60.00,Monday
7,26.0
8,23.890527909871609
9,23.95753683380179
96,89.98426070429386
2,9, 1, 9, 0, 6, 0.00,60.00,Monday
7,26.0
8,23.587037856828056
9,23.66056365709002
96,91.69648711526614
2,9, 1, 9, 0, 7, 0.00,60.00,Monday
7,26.812499999999998
8,23.554492903041344
9,23.601102661224507
96,92.05925710286894
2,9, 1, 9, 0, 8, 0.00,60.00,Monday
7,28.175
8,24.254326500214544
9,24.201471209844088
96,88.81093907455264
2,9, 1, 9, 0, 9, 0.00,60.00,Monday
7,29.5125
8,26.112353429881244
9,25.942119300451055
96,80.10836582464265
2,9, 1, 9, 0,10, 0.00,60.00,Monday
7,30.437500000000005
8,28.678531820092844
9,28.515251165528946
96,68.91375600083589
2,9, 1, 9, 0,11, 0.00,60.00,Monday
7,31.075
8,31.20753225872782
9,30.955946951019628
96,59.86821577757376
2,9, 1, 9, 0,12, 0.00,60.00,Monday
7,31.7375
8,33.48744403793234
9,33.147973086791719
96,52.8902870363725
2,9, 1, 9, 0,13, 0.00,60.00,Monday
7,31.812500000000005
8,35.28647502563818
9,35.02115369105988
96,47.60513764972728
2,9, 1, 9, 0,14, 0.00,60.00,Monday
7,31.45
8,36.79907429348394
9,36.559120472446739
96,43.69632651656026
2,9, 1, 9, 0,15, 0.00,60.00,Monday
7,31.1125
8,37.86119765352258
9,37.715086887320889
96,41.00971165014033
2,9, 1, 9, 0,16, 0.00,60.00,Monday
7,30.375
8,38.33470237091087
9,38.343862944594167
96,39.63412233469337
2,9, 1, 9, 0,17, 0.00,60.00,Monday
7,29.375
8,37.98714718918243
9,38.153993997557659
96,40.04435114429267
2,9, 1, 9, 0,18, 0.00,60.00,Monday
7,28.375
8,36.733414351835609
9,37.056614293804589
96,42.541279581980578
2,9, 1, 9, 0,19, 0.00,60.00,Monday
7,27.812500000000005
8,34.75745571989246
9,35.090599384737348
96,47.41867802072025
2,9, 1, 9, 0,20, 0.00,60.00,Monday
7,27.45
8,32.71300194272061
9,32.96477612525713
96,53.37568720899955
2,9, 1, 9, 0,21, 0.00,60.00,Monday
7,27.1125
8,30.942933127824717
9,31.13432847449226
96,59.222013818471939
2,9, 1, 9, 0,22, 0.00,60.00,Monday
7,26.812500000000005
8,29.454484282550358
9,29.611708126332596
96,64.63145572619074
2,9, 1, 9, 0,23, 0.00,60.00,Monday
7,26.45
8,28.19236663283875
9,28.32699864718291
96,69.61267717792723
2,9, 1, 9, 0,24, 0.00,60.00,Monday
7,26.1125
8,27.116094690759426
9,27.223860356707328
96,74.23804426743178
2,10, 1,10, 0, 1, 0.00,60.00,Tuesday
7,25.812500000000005
8,26.194874231515987
9,26.293322984511496
96,78.36311351324847
2,10, 1,10, 0, 2, 0.00,60.00,Tuesday
7,25.45
8,25.393733420541346
9,25.488241047457579
96,82.10575227002816
2,10, 1,10, 0, 3, 0.00,60.00,Tuesday
7,25.1125
8,24.681468676507764
9,24.77600100709764
96,85.63029396747149
2,10, 1,10, 0, 4, 0.00,60.00,Tuesday
7,24.562499999999998
8,24.032903558013154
9,24.1350819472432
96,88.97849987131628
2,10, 1,10, 0, 5, 0.00,60.00,Tuesday
7,23.925
8,23.429670741972339
9,23.543181407587299
96,92.20249079976154
2,10, 1,10, 0, 6, 0.00,60.00,Tuesday
7,23.2625
8,22.8820066037917
9,22.996701697273907
96,95.35508307240888
2,10, 1,10, 0, 7, 0.00,60.00,Tuesday
7,24.25
8,22.78447642866886
9,22.813317289609967
96,96.45315743101227
2,10, 1,10, 0, 8, 0.00,60.00,Tuesday
7,26.25
8,23.664152462763754
9,23.595786229244756
96,92.08266319541228
2,10, 1,10, 0, 9, 0.00,60.00,Tuesday
7,28.25
8,25.693314539316075
9,25.557600519100583
96,82.02244063513098
2,10, 1,10, 0,10, 0.00,60.00,Tuesday
7,29.625
8,28.33575588845744
9,28.247492062912337
96,70.02316131673044
2,10, 1,10, 0,11, 0.00,60.00,Tuesday
7,30.625
8,30.863320396385423
9,30.636212473675096
96,60.966360326334477
2,10, 1,10, 0,12, 0.00,60.00,Tuesday
7,31.625
8,33.04728844930011
9,32.82823933352117
96,53.839691265962937
2,10, 1,10, 0,13, 0.00,60.00,Tuesday
7,31.812500000000005
8,34.61317861685674
9,34.432554900874439
96,49.17715467725394
2,10, 1,10, 0,14, 0.00,60.00,Tuesday
7,31.45
8,35.94835542387643
9,35.718540110929939
96,45.75782642074026
2,10, 1,10, 0,15, 0.00,60.00,Tuesday
7,31.1125
8,37.242352590358809
9,37.06487537425151
96,42.48835337176705
2,10, 1,10, 0,16, 0.00,60.00,Tuesday
7,30.562499999999998
8,37.92687153606256
9,37.93513644374987
96,40.520188645072099
2,10, 1,10, 0,17, 0.00,60.00,Tuesday
7,29.925
8,37.73068596093325
9,37.91743613451185
96,40.55932143421037
2,10, 1,10, 0,18, 0.00,60.00,Tuesday
7,29.2625
8,36.546366695624389
9,36.88050235913726
96,42.92425067908673
2,10, 1,10, 0,19, 0.00,60.00,Tuesday
7,28.562499999999998
8,34.627620017137278
9,34.948205950646478
96,47.744953937277177
2,10, 1,10, 0,20, 0.00,60.00,Tuesday
7,27.925
8,32.64270068951282
9,32.883596108432318
96,53.564657677298
2,10, 1,10, 0,21, 0.00,60.00,Tuesday
7,27.2625
8,30.90052272183696
9,31.087557242490257
96,59.32078334100978
2,10, 1,10, 0,22, 0.00,60.00,Tuesday
7,27.0
8,29.424715843059709
9,29.575186419996176
96,64.66254975975864
2,10, 1,10, 0,23, 0.00,60.00,Tuesday
7,27.0
8,28.204825626969787
9,28.318808649657748
96,69.50662639222313
2,10, 1,10, 0,24, 0.00,60.00,Tuesday
7,27.0
8,27.213768566896765
9,27.29717312810702
96,73.77136783915616
2,11, 1,11, 0, 1, 0.00,60.00,Wednesday
7,27.0
8,26.409796849878853
9,26.472766563943034
96,77.38215947114883
2,11, 1,11, 0, 2, 0.00,60.00,Wednesday
7,27.0
8,25.76056492345726
9,25.808208103914607
96,80.44957302532336
2,11, 1,11, 0, 3, 0.00,60.00,Wednesday
7,27.0
8,25.230078756660299
9,25.278453556353953
96,83.0185488919514
2,11, 1,11, 0, 4, 0.00,60.00,Wednesday
7,26.812500000000005
8,24.776280498605567
9,24.833741118646317
96,85.24725334961487
2,11, 1,11, 0, 5, 0.00,60.00,Wednesday
7,26.45
8,24.357223913429374
9,24.429603009691378
96,87.33169154996337
2,11, 1,11, 0, 6, 0.00,60.00,Wednesday
7,26.1125
8,23.973883378682844
9,24.051198105791035
96,89.39073462759989
2,11, 1,11, 0, 7, 0.00,60.00,Wednesday
7,26.625
8,24.02240848051806
9,24.047139801097573
96,89.44631653680102
2,11, 1,11, 0, 8, 0.00,60.00,Wednesday
7,27.625
8,24.7488192741214
9,24.7526039635423
96,85.7578013540967
2,11, 1,11, 0, 9, 0.00,60.00,Wednesday
7,28.625
8,26.165806253213949
9,26.079762396586277
96,79.33264476518562
2,11, 1,11, 0,10, 0.00,60.00,Wednesday
7,29.437500000000005
8,28.32779372149468
9,28.14819789903769
96,70.26712958932092
2,11, 1,11, 0,11, 0.00,60.00,Wednesday
7,30.075
8,30.70450802189197
9,30.492519437777056
96,61.351944479146258
2,11, 1,11, 0,12, 0.00,60.00,Wednesday
7,30.7375
8,32.80230437209413
9,32.609486984683858
96,54.39543257042908
2,11, 1,11, 0,13, 0.00,60.00,Wednesday
7,31.187499999999998
8,34.6292693784834
9,34.39867849073234
96,49.18014080681385
2,11, 1,11, 0,14, 0.00,60.00,Wednesday
7,31.55
8,36.21160248423885
9,35.98029191756508
96,45.01665902043783
2,11, 1,11, 0,15, 0.00,60.00,Wednesday
7,31.8875
8,37.46446773292925
9,37.301452473619267
96,41.86065496787388
2,11, 1,11, 0,16, 0.00,60.00,Wednesday
7,31.562499999999998
8,38.13715199482958
9,38.1527799613947
96,39.96646672126465
2,11, 1,11, 0,17, 0.00,60.00,Wednesday
7,30.925
8,37.90926647529206
9,38.09242565543044
96,40.097940932699199
2,11, 1,11, 0,18, 0.00,60.00,Wednesday
7,30.2625
8,36.660556570067509
9,36.97436186218356
96,42.6213260647537
2,11, 1,11, 0,19, 0.00,60.00,Wednesday
7,29.562499999999998
8,34.75132081788969
9,35.04388272472292
96,47.397501739169118
2,11, 1,11, 0,20, 0.00,60.00,Wednesday
7,28.925
8,32.82568091428966
9,33.03831094890768
96,52.993778374663019
2,11, 1,11, 0,21, 0.00,60.00,Wednesday
7,28.2625
8,31.15285942488311
9,31.316509893008925
96,58.43486254692965
2,11, 1,11, 0,22, 0.00,60.00,Wednesday
7,27.812500000000005
8,29.7330835112175
9,29.866976397885673
96,63.498532342514717
2,11, 1,11, 0,23, 0.00,60.00,Wednesday
7,27.45
8,28.53282978991755
9,28.639830686601575
96,68.15513928880442
2,11, 1,11, 0,24, 0.00,60.00,Wednesday
7,27.1125
8,27.516718201318804
9,27.601911658251525
96,72.39630041132992
2,12, 1,12, 0, 1, 0.00,60.00,Thursday