Program Version,EnergyPlus, Version 8.9.0-40101eaafd, YMD=2025.08.27 01:24
1,5,Environment Title[],Latitude[deg],Longitude[deg],Time Zone[],Elevation[m]
2,8,Day of Simulation[],Month[],Day of Month[],DST Indicator[1=yes 0=no],Hour[],StartMinute[],EndMinute[],DayType
3,5,Cumulative Day of Simulation[],Month[],Day of Month[],DST Indicator[1=yes 0=no],DayType  ! When Daily Report Variables Requested
4,2,Cumulative Days of Simulation[],Month[]  ! When Monthly Report Variables Requested
5,1,Cumulative Days of Simulation[] ! When Run Period Report Variables Requested
6,1,Calendar Year of Simulation[] ! When Annual Report Variables Requested
7,1,Environment,Site Outdoor Air Drybulb Temperature [C] !Hourly
8,1,ZONE DEFAULT,Zone Mean Radiant Temperature [C] !Hourly
9,1,ZONE DEFAULT,Zone Mean Air Temperature [C] !Hourly
96,1,ZONE DEFAULT,Zone Air Relative Humidity [%] !Hourly
End of Data Dictionary
1,TROPOS3D MODEL, -30.03, -51.23,  -3.00,  47.00
2,1, 1, 1, 0, 1, 0.00,60.00,Sunday
7,21.4875
8,23.656969737078254
9,23.751035223587559
96,77.26182759227756
2,1, 1, 1, 0, 2, 0.00,60.00,Sunday
7,20.6875
8,22.830422551233803
9,22.926385214967298
96,81.22050948764167
2,1, 1, 1, 0, 3, 0.00,60.00,Sunday
7,20.4375
8,22.077243207348457
9,22.174715566830828
96,85.00453466779212
2,1, 1, 1, 0, 4, 0.00,60.00,Sunday
7,20.2125
8,21.41337786511863
9,21.513015868795877
96,88.48850393444794
2,1, 1, 1, 0, 5, 0.00,60.00,Sunday
7,20.2875
8,20.837389871162697
9,20.942580423773469
96,91.6230303949947
2,1, 1, 1, 0, 6, 0.00,60.00,Sunday
7,20.4
8,20.387739273033099
9,20.491134049354196
96,94.2243919756666
2,1, 1, 1, 0, 7, 0.00,60.00,Sunday
7,21.4
8,20.353556121324439
9,20.405221625458606
96,94.77410450064767
2,1, 1, 1, 0, 8, 0.00,60.00,Sunday
7,23.25
8,21.15234632723727
9,21.11846298084324
96,90.7494005522448
2,1, 1, 1, 0, 9, 0.00,60.00,Sunday
7,24.437500000000005
8,22.637179465843159
9,22.55890129360661
96,83.14710839125047
2,1, 1, 1, 0,10, 0.00,60.00,Sunday
7,26.0125
8,24.613834816469468
9,24.483774747172938
96,74.0628360702056
2,1, 1, 1, 0,11, 0.00,60.00,Sunday
7,27.3625
8,26.916243332580547
9,26.750453960753775
96,64.7370392216424
2,1, 1, 1, 0,12, 0.00,60.00,Sunday
7,27.8875
8,29.062654413944956
9,28.897775164598586
96,57.07826638722195
2,1, 1, 1, 0,13, 0.00,60.00,Sunday
7,27.9375
8,30.568414035926474
9,30.402701888993695
96,52.29961425362343
2,1, 1, 1, 0,14, 0.00,60.00,Sunday
7,28.2125
8,31.664222645914817
9,31.480282123114244
96,49.15655858800478
2,1, 1, 1, 0,15, 0.00,60.00,Sunday
7,28.4
8,32.637028101809267
9,32.441259465752718
96,46.53976934474814
2,1, 1, 1, 0,16, 0.00,60.00,Sunday
7,28.65
8,33.40158689908623
9,33.26267544495034
96,44.42088634857602
2,1, 1, 1, 0,17, 0.00,60.00,Sunday
7,28.362500000000006
8,33.586421189054977
9,33.55504234216873
96,43.68028530234668
2,1, 1, 1, 0,18, 0.00,60.00,Sunday
7,27.6
8,32.829520274055287
9,32.92457996017306
96,45.24858790806745
2,1, 1, 1, 0,19, 0.00,60.00,Sunday
7,26.112499999999998
8,31.356644870977676
9,31.477107169475639
96,49.11809577143222
2,1, 1, 1, 0,20, 0.00,60.00,Sunday
7,24.775
8,29.683957411621259
9,29.815524331125546
96,54.03810476733234
2,1, 1, 1, 0,21, 0.00,60.00,Sunday
7,24.025
8,28.128563502942517
9,28.252527460366417
96,59.170680663545528
2,1, 1, 1, 0,22, 0.00,60.00,Sunday
7,23.3
8,26.77244830650682
9,26.889648603762358
96,64.08472066217661
2,1, 1, 1, 0,23, 0.00,60.00,Sunday
7,22.75
8,25.590502086264814
9,25.692161572206716
96,68.7815607619628
2,1, 1, 1, 0,24, 0.00,60.00,Sunday
7,22.4125
8,24.559977396933893
9,24.656372683693115
96,73.15099291057331
2,2, 1, 2, 0, 1, 0.00,60.00,Monday
7,22.175000000000006
8,23.68186094294186
9,23.774558770535064
96,77.09339120509614
2,2, 1, 2, 0, 2, 0.00,60.00,Monday
7,22.0375
8,22.943410610770174
9,23.036623565822745
96,80.56646533778074
2,2, 1, 2, 0, 3, 0.00,60.00,Monday
7,22.0
8,22.307091822713738
9,22.405410481541929
96,83.68683394911369
2,2, 1, 2, 0, 4, 0.00,60.00,Monday
7,22.0
8,21.764045644228447
9,21.86616911185203
96,86.48521787027015
2,2, 1, 2, 0, 5, 0.00,60.00,Monday
7,21.812500000000005
8,21.29819227399083
9,21.407433728636808
96,88.98558424388856
2,2, 1, 2, 0, 6, 0.00,60.00,Monday
7,22.0125
8,20.94260462850422
9,21.041333427170227
96,91.07117839452353
2,2, 1, 2, 0, 7, 0.00,60.00,Monday
7,22.762500000000004
8,20.905863217348235
9,20.97541186182054
96,91.49594073188917
2,2, 1, 2, 0, 8, 0.00,60.00,Monday
7,23.1625
8,21.179894454201166
9,21.240099052369179
96,90.04937829622475
2,2, 1, 2, 0, 9, 0.00,60.00,Monday
7,22.699999999999997
8,21.187849927045357
9,21.261216252577517
96,89.95006774097458
2,2, 1, 2, 0,10, 0.00,60.00,Monday
7,21.275
8,20.937652205154384
9,21.013726222572516
96,91.36968453561012
2,2, 1, 2, 0,11, 0.00,60.00,Monday
7,21.099999999999999
8,20.669764037557415
9,20.710319799709347
96,93.1227195266316
2,2, 1, 2, 0,12, 0.00,60.00,Monday
7,22.5875
8,21.307610093093979
9,21.21907876600091
96,90.26090320933372
2,2, 1, 2, 0,13, 0.00,60.00,Monday
7,24.924999999999998
8,22.565196652990314
9,22.396692484429939
96,83.9751480365139
2,2, 1, 2, 0,14, 0.00,60.00,Monday
7,26.7125
8,24.35205569988281
9,24.02854322861842
96,76.08102477067658
2,2, 1, 2, 0,15, 0.00,60.00,Monday
7,27.2625
8,26.50487393303557
9,26.2018193569235
96,66.81013681173151
2,2, 1, 2, 0,16, 0.00,60.00,Monday
7,27.55
8,28.00201531945983
9,27.82713672145038
96,60.683084479832299
2,2, 1, 2, 0,17, 0.00,60.00,Monday
7,27.824999999999997
8,28.85882384124318
9,28.79785097828507
96,57.32570639198177
2,2, 1, 2, 0,18, 0.00,60.00,Monday
7,27.0875
8,28.90798845092305
9,28.945329938251484
96,56.82671874581241
2,2, 1, 2, 0,19, 0.00,60.00,Monday
7,25.5375
8,28.16892283587748
9,28.254101819477808
96,59.18123122289802
2,2, 1, 2, 0,20, 0.00,60.00,Monday
7,24.0875
8,27.04627212505011
9,27.14557256981288
96,63.17980152300384
2,2, 1, 2, 0,21, 0.00,60.00,Monday
7,23.1625
8,25.887997398303879
9,25.98733865859461
96,67.67353275455811
2,2, 1, 2, 0,22, 0.00,60.00,Monday
7,22.3375
8,24.82305564241687
9,24.92066978478475
96,72.134363391246
2,2, 1, 2, 0,23, 0.00,60.00,Monday
7,21.6875
8,23.867405150583808
9,23.96366410283219
96,76.40913486696394
2,2, 1, 2, 0,24, 0.00,60.00,Monday
7,21.1875
8,23.018055000388708
9,23.11390298718998
96,80.42404457088806
2,3, 1, 3, 0, 1, 0.00,60.00,Tuesday
7,20.875
8,22.26441538459211
9,22.36164589943688
96,84.16307203670859
2,3, 1, 3, 0, 2, 0.00,60.00,Tuesday
7,20.6125
8,21.597625001030015
9,21.697379382643719
96,87.59069358117697
2,3, 1, 3, 0, 3, 0.00,60.00,Tuesday
7,20.625
8,21.015055122933963
9,21.11840154010912
96,90.73686810156213
2,3, 1, 3, 0, 4, 0.00,60.00,Tuesday
7,20.7
8,20.523628362208517
9,20.634113120500598
96,93.4808959355004
2,3, 1, 3, 0, 5, 0.00,60.00,Tuesday
7,20.45
8,20.098669925360935
9,20.22466593533704
96,95.9059013660706
2,3, 1, 3, 0, 6, 0.00,60.00,Tuesday
7,20.175000000000006
8,19.78199992852343
9,19.878429193007855
96,98.00431142070595
2,3, 1, 3, 0, 7, 0.00,60.00,Tuesday
7,21.7875
8,19.958760776544254
9,19.985532509042196
96,97.43688833242837
2,3, 1, 3, 0, 8, 0.00,60.00,Tuesday
7,23.2375
8,20.839539376710229
9,20.80478814299766
96,92.70683857057742
2,3, 1, 3, 0, 9, 0.00,60.00,Tuesday
7,24.6875
8,22.44577140043332
9,22.41919402986005
96,84.0184434921562
2,3, 1, 3, 0,10, 0.00,60.00,Tuesday
7,25.15
8,24.128362997845508
9,24.0650151801078
96,76.05471008351035
2,3, 1, 3, 0,11, 0.00,60.00,Tuesday
7,25.5625
8,25.697652463059876
9,25.591757340557544
96,69.43654291234907
2,3, 1, 3, 0,12, 0.00,60.00,Tuesday
7,26.9
8,27.37496712394421
9,27.192828757238165
96,63.180396263215559
2,3, 1, 3, 0,13, 0.00,60.00,Tuesday
7,26.9375
8,29.05167523179515
9,28.81770368278263
96,57.44535847905806
2,3, 1, 3, 0,14, 0.00,60.00,Tuesday
7,26.6
8,30.345552860915
9,30.121391283890934
96,53.26809365113289
2,3, 1, 3, 0,15, 0.00,60.00,Tuesday
7,26.725
8,31.23952737275471
9,31.059444654596008
96,50.46355455653291
2,3, 1, 3, 0,16, 0.00,60.00,Tuesday
7,26.549999999999998
8,31.633414738063125
9,31.530587787604178
96,49.105867270465918
2,3, 1, 3, 0,17, 0.00,60.00,Tuesday
7,25.5875
8,31.380362088260925
9,31.374446412310009
96,49.530042665271839
2,3, 1, 3, 0,18, 0.00,60.00,Tuesday
7,24.5375
8,30.44355886487978
9,30.525634629830319
96,51.98150095898091
2,3, 1, 3, 0,19, 0.00,60.00,Tuesday
7,23.6375
8,29.029528618674989
9,29.135226032240909
96,56.320879687035297
2,3, 1, 3, 0,20, 0.00,60.00,Tuesday
7,22.9875
8,27.530020352747085
9,27.64439670976786
96,61.42664609730275
2,3, 1, 3, 0,21, 0.00,60.00,Tuesday
7,22.549999999999998
8,26.16950804530041
9,26.280694865220739
96,66.57604070262548
2,3, 1, 3, 0,22, 0.00,60.00,Tuesday
7,22.025
8,24.985991855472379
9,25.081790329289477
96,71.53199178089365
2,3, 1, 3, 0,23, 0.00,60.00,Tuesday
7,21.362500000000006
8,23.967285071077
9,24.05439865104687
96,76.08360510718024
2,3, 1, 3, 0,24, 0.00,60.00,Tuesday
7,20.537499999999999
8,23.069859145745079
9,23.15707778069867
96,80.2631026414472
2,4, 1, 4, 0, 1, 0.00,60.00,Wednesday
7,20.012499999999997
8,22.25193795909511
9,22.34192090964048
96,84.27489136630085
2,4, 1, 4, 0, 2, 0.00,60.00,Wednesday
7,19.5875
8,21.51198201924261
9,21.604626863498866
96,88.14000508432153
2,4, 1, 4, 0, 3, 0.00,60.00,Wednesday
7,19.15
8,20.833723130704909
9,20.931876760024094
96,91.8386217824821
2,4, 1, 4, 0, 4, 0.00,60.00,Wednesday
7,18.8125
8,20.209285565640184
9,20.311278847695826
96,95.4026827056409
2,4, 1, 4, 0, 5, 0.00,60.00,Wednesday
7,18.45
8,19.64838720576077
9,19.757040596062219
96,98.74761311772038
2,4, 1, 4, 0, 6, 0.00,60.00,Wednesday
7,18.3625
8,19.23896850047743
9,19.309585071138988
96,99.9672685641047
2,4, 1, 4, 0, 7, 0.00,60.00,Wednesday
7,20.837500000000003
8,19.475547350080988
9,19.47139448978481
96,98.51969668784821
2,4, 1, 4, 0, 8, 0.00,60.00,Wednesday
7,22.925
8,20.59899152532613
9,20.550861719461289
96,92.20620409408723
2,4, 1, 4, 0, 9, 0.00,60.00,Wednesday
7,23.800000000000006
8,22.34251028910896
9,22.36220879562968
96,82.55570758917945
2,4, 1, 4, 0,10, 0.00,60.00,Wednesday
7,25.4125
8,24.496087800456587
9,24.485032066186095
96,72.6459865038265
2,4, 1, 4, 0,11, 0.00,60.00,Wednesday
7,26.3875
8,26.87635677592826
9,26.74569629374309
96,63.51656743047729
2,4, 1, 4, 0,12, 0.00,60.00,Wednesday
7,27.875000000000005
8,29.166009215734318
9,29.023978365798436
96,55.58650926377388
2,4, 1, 4, 0,13, 0.00,60.00,Wednesday
7,28.8875
8,31.20248572239454
9,31.092534077678633
96,49.33371563119062
2,4, 1, 4, 0,14, 0.00,60.00,Wednesday
7,29.25
8,33.03466295205319
9,32.85622672090732
96,44.62461396167747
2,4, 1, 4, 0,15, 0.00,60.00,Wednesday
7,29.4
8,34.39059668154794
9,34.210030958307147
96,41.349875413033469
2,4, 1, 4, 0,16, 0.00,60.00,Wednesday
7,29.3375
8,35.174164304534567
9,35.056924612700949
96,39.43735725438842
2,4, 1, 4, 0,17, 0.00,60.00,Wednesday
7,28.175
8,35.2142045944893
9,35.20218695511148
96,39.10939553532744
2,4, 1, 4, 0,18, 0.00,60.00,Wednesday
7,26.1875
8,34.09371709829002
9,34.19785297773431
96,41.366793030697028
2,4, 1, 4, 0,19, 0.00,60.00,Wednesday
7,24.65
8,32.14683423916446
9,32.28230822810709
96,46.082469201109919
2,4, 1, 4, 0,20, 0.00,60.00,Wednesday
7,23.325
8,30.07446488770814
9,30.212567564520357
96,51.85799963026237
2,4, 1, 4, 0,21, 0.00,60.00,Wednesday
7,22.237499999999998
8,28.182177413674276
9,28.313340302860867
96,57.9010470344483
2,4, 1, 4, 0,22, 0.00,60.00,Wednesday
7,21.5875
8,26.5483648110715
9,26.668310208040283
96,63.77853093774692
2,4, 1, 4, 0,23, 0.00,60.00,Wednesday
7,21.4
8,25.1980596979348
9,25.306112645200487
96,69.14266057686156
2,4, 1, 4, 0,24, 0.00,60.00,Wednesday
7,21.4
8,24.067248346633787
9,24.159608680632787
96,74.03518436818924
2,5, 1, 5, 0, 1, 0.00,60.00,Thursday
7,21.3375
8,23.106327992282659
9,23.19811049036614
96,78.40908938933029
2,5, 1, 5, 0, 2, 0.00,60.00,Thursday
7,21.175000000000006
8,22.30146634801875
9,22.39286876050836
96,82.31074374336063
2,5, 1, 5, 0, 3, 0.00,60.00,Thursday
7,20.9125
8,21.623725495035936
9,21.71583615928445
96,85.750733281749
2,5, 1, 5, 0, 4, 0.00,60.00,Thursday
7,20.8
8,21.047362256698898
9,21.143485688542805
96,88.78735550718943
2,5, 1, 5, 0, 5, 0.00,60.00,Thursday
7,20.8
8,20.55999757614172
9,20.664732313994699
96,91.44776492632087
2,5, 1, 5, 0, 6, 0.00,60.00,Thursday
7,20.8
8,20.172471318486168
9,20.28170831175826
96,93.71079870276677
2,5, 1, 5, 0, 7, 0.00,60.00,Thursday
7,21.799999999999998
8,20.148791497571506
9,20.196748871791969
96,94.25185537071703
2,5, 1, 5, 0, 8, 0.00,60.00,Thursday
7,23.3375
8,20.981250303113737
9,20.94199262840082
96,90.06924030646926
2,5, 1, 5, 0, 9, 0.00,60.00,Thursday
7,23.9
8,22.392183382981984
9,22.337631385085947
96,82.70895117453525
2,5, 1, 5, 0,10, 0.00,60.00,Thursday
7,24.8375
8,24.227797119619838
9,24.125091907868318
96,74.24663747972983
2,5, 1, 5, 0,11, 0.00,60.00,Thursday
7,25.525
8,26.21698984842417
9,26.08976118195357
96,66.05269407186995
2,5, 1, 5, 0,12, 0.00,60.00,Thursday
7,26.225
8,28.089585595232994
9,27.929405366658388
96,59.25876263717649
2,5, 1, 5, 0,13, 0.00,60.00,Thursday
7,26.9125
8,29.85561723622735
9,29.660013022166618
96,53.57717779119773
2,5, 1, 5, 0,14, 0.00,60.00,Thursday
7,27.6
8,31.444746391042626
9,31.23881824578813
96,48.920095071227638
2,5, 1, 5, 0,15, 0.00,60.00,Thursday
7,27.8375
8,32.6582648221466
9,32.48831549449521
96,45.56141053614966
2,5, 1, 5, 0,16, 0.00,60.00,Thursday
7,26.8625
8,33.06492332516698
9,33.01905877980735
96,44.209793388826678
2,5, 1, 5, 0,17, 0.00,60.00,Thursday
7,26.362499999999998
8,32.493651309781217
9,32.576012954373329
96,45.32055935397908
2,5, 1, 5, 0,18, 0.00,60.00,Thursday
7,25.5875
8,31.27620491405623
9,31.42611881649281
96,48.38873760862347
2,5, 1, 5, 0,19, 0.00,60.00,Thursday
7,23.7875
8,29.68979640825409
9,29.818471991260347
96,53.07588472036643
2,5, 1, 5, 0,20, 0.00,60.00,Thursday
7,22.249999999999998
8,27.973965162889706
9,28.10322937508679
96,58.653556288864248
2,5, 1, 5, 0,21, 0.00,60.00,Thursday
7,21.1125
8,26.364380739507959
9,26.485450544245709
96,64.51896334858017
2,5, 1, 5, 0,22, 0.00,60.00,Thursday
7,20.325
8,24.9481439987666
9,25.059690637698215
96,70.22775149909191
2,5, 1, 5, 0,23, 0.00,60.00,Thursday
7,20.0375
8,23.712925636187756
9,23.814914269146195
96,75.65529396551827
2,5, 1, 5, 0,24, 0.00,60.00,Thursday
7,19.9375
8,22.654317838188559
9,22.744961626056335
96,80.66955856154552
2,6, 1, 6, 0, 1, 0.00,60.00,Friday
7,19.775
8,21.77136963031363
9,21.858460433660129
96,85.07897241045922
2,6, 1, 6, 0, 2, 0.00,60.00,Friday
7,19.2625
8,21.017066323123595
9,21.1036542687907
96,89.07025595289693
2,6, 1, 6, 0, 3, 0.00,60.00,Friday
7,18.75
8,20.356353712999917
9,20.44290469304066
96,92.7519005578074
2,6, 1, 6, 0, 4, 0.00,60.00,Friday
7,18.5375
8,19.76262439353962
9,19.86030866825039
96,96.14803354096982
2,6, 1, 6, 0, 5, 0.00,60.00,Friday
7,18.0625
8,19.223663999929337
9,19.326815317001566
96,99.25120812595448
2,6, 1, 6, 0, 6, 0.00,60.00,Friday
7,17.8625
8,18.83250253038883
9,18.878766813387406
96,99.95119091506055
2,6, 1, 6, 0, 7, 0.00,60.00,Friday
7,19.9
8,19.099456966147274
9,19.071928332234746
96,98.33632986280699
2,6, 1, 6, 0, 8, 0.00,60.00,Friday
7,22.475
8,20.215287926691138
9,20.161316825477376
96,91.98923691357106
2,6, 1, 6, 0, 9, 0.00,60.00,Friday
7,24.9875
8,22.09839414106711
9,22.1430415652772
96,81.49338622697667
2,6, 1, 6, 0,10, 0.00,60.00,Friday
7,26.6875
8,24.461046964603154
9,24.45690706338761
96,70.88366154585634
2,6, 1, 6, 0,11, 0.00,60.00,Friday
7,28.0375
8,27.005586812083739
9,27.01671443293489
96,60.89045682049159
2,6, 1, 6, 0,12, 0.00,60.00,Friday
7,28.975
8,29.460042843823929
9,29.323604879280773
96,53.21660809737315
2,6, 1, 6, 0,13, 0.00,60.00,Friday
7,30.075000000000004
8,31.5245916587752
9,31.377886846408488
96,47.28588952106418
2,6, 1, 6, 0,14, 0.00,60.00,Friday
7,31.1
8,33.32408240518226
9,33.131095997773758
96,42.805701346253169
2,6, 1, 6, 0,15, 0.00,60.00,Friday
7,31.275
8,34.81962611931331
9,34.59859104245642
96,39.426308340390459
2,6, 1, 6, 0,16, 0.00,60.00,Friday
7,30.8875
8,35.68150968291972
9,35.55932849787196
96,37.37737473333692
2,6, 1, 6, 0,17, 0.00,60.00,Friday
7,30.7
8,35.725157429404109
9,35.70084488581911
96,37.08155889364218
2,6, 1, 6, 0,18, 0.00,60.00,Friday
7,30.1375
8,34.85594157488805
9,34.92274830898542
96,38.72253163413196
2,6, 1, 6, 0,19, 0.00,60.00,Friday
7,28.05
8,33.28050607853869
9,33.38538481444653
96,42.206281461576157
2,6, 1, 6, 0,20, 0.00,60.00,Friday
7,25.8125
8,31.404198748677687
9,31.533495137904173
96,46.87611418536283
2,6, 1, 6, 0,21, 0.00,60.00,Friday
7,24.4125
8,29.568804923989583
9,29.701186080264919
96,52.05458188222331
2,6, 1, 6, 0,22, 0.00,60.00,Friday
7,23.625
8,27.973631326359404
9,28.095697143009216
96,57.13621366144463
2,6, 1, 6, 0,23, 0.00,60.00,Friday
7,22.9625
8,26.597409406599433
9,26.716409581751607
96,61.96156321570419
2,6, 1, 6, 0,24, 0.00,60.00,Friday
7,22.512499999999997
8,25.403397224224685
9,25.509936183152918
96,66.5406004801064
2,7, 1, 7, 0, 1, 0.00,60.00,Saturday
7,22.025
8,24.385324877933095
9,24.479328615516598
96,70.72839041339083
2,7, 1, 7, 0, 2, 0.00,60.00,Saturday
7,21.6125
8,23.506878421357045
9,23.600174414364348
96,74.53726672437762
2,7, 1, 7, 0, 3, 0.00,60.00,Saturday
7,21.25
8,22.73800388984055
9,22.83338936336342
96,78.06003089134659
2,7, 1, 7, 0, 4, 0.00,60.00,Saturday
7,20.849999999999999
8,22.047748970593245
9,22.147104164484597
96,81.39036038074406
2,7, 1, 7, 0, 5, 0.00,60.00,Saturday
7,20.3875
8,21.414216847140268
9,21.516940110940184
96,84.60522844738083
2,7, 1, 7, 0, 6, 0.00,60.00,Saturday
7,20.2
8,20.901854860392598
9,20.9899017795133
96,87.42459904271671
2,7, 1, 7, 0, 7, 0.00,60.00,Saturday
7,20.825
8,20.83859279129133
9,20.886297924911195
96,88.01784974177144
2,7, 1, 7, 0, 8, 0.00,60.00,Saturday
7,23.325000000000004
8,21.579050791569359
9,21.547513021787819
96,84.58270562457752
2,7, 1, 7, 0, 9, 0.00,60.00,Saturday
7,25.725
8,23.226949462497026
9,23.165640409183646
96,76.70075146657277
2,7, 1, 7, 0,10, 0.00,60.00,Saturday
7,27.4625
8,25.459092071553348
9,25.329571198653853
96,67.37930379053005
2,7, 1, 7, 0,11, 0.00,60.00,Saturday
7,29.5375
8,27.918355462644734
9,27.827395706819986
96,58.14684510516766
2,7, 1, 7, 0,12, 0.00,60.00,Saturday
7,31.7125
8,30.418537685472896
9,30.248624243087794
96,50.493786978876347
2,7, 1, 7, 0,13, 0.00,60.00,Saturday
7,33.4375
8,32.774290585474158
9,32.493720305063
96,44.41405330931849
2,7, 1, 7, 0,14, 0.00,60.00,Saturday
7,34.9375
8,34.919377952768
9,34.67076905203953
96,39.28763602288386
2,7, 1, 7, 0,15, 0.00,60.00,Saturday
7,35.5625
8,36.61747006894339
9,36.348118074026
96,35.77689355167462
2,7, 1, 7, 0,16, 0.00,60.00,Saturday
7,35.1625
8,37.641005729103088
9,37.45728957231532
96,33.64956171728617
2,7, 1, 7, 0,17, 0.00,60.00,Saturday
7,33.8375
8,37.72920644066548
9,37.660197592267987
96,33.260838298470009
2,7, 1, 7, 0,18, 0.00,60.00,Saturday
7,31.950000000000004
8,36.74565720082002
9,36.8054962368768
96,34.843138879128797
2,7, 1, 7, 0,19, 0.00,60.00,Saturday
7,29.95
8,34.983907574774878
9,35.09875932976489
96,38.28260256991214
2,7, 1, 7, 0,20, 0.00,60.00,Saturday
7,27.95
8,33.00076930157981
9,33.13452983090497
96,42.7129815406344
2,7, 1, 7, 0,21, 0.00,60.00,Saturday
7,26.825000000000004
8,31.15658678536947
9,31.2905361152496
96,47.399844881820587
2,7, 1, 7, 0,22, 0.00,60.00,Saturday
7,25.9125
8,29.534513314974484
9,29.664395143003426
96,52.027182361154917
2,7, 1, 7, 0,23, 0.00,60.00,Saturday
7,25.000000000000005
8,28.13524840001584
9,28.2582121496334
96,56.434485326198238
2,7, 1, 7, 0,24, 0.00,60.00,Saturday
7,24.512499999999997
8,26.91939844355166
9,27.03307876202026
96,60.61685034782137
2,8, 1, 8, 0, 1, 0.00,60.00,Sunday
7,24.3375
8,25.866977869010989
9,25.969956453041694
96,64.52455296994674
2,8, 1, 8, 0, 2, 0.00,60.00,Sunday
7,24.2375
8,24.976006503005644
9,25.077236544029544
96,68.02505872328678
2,8, 1, 8, 0, 3, 0.00,60.00,Sunday
7,24.075
8,24.220321881532649
9,24.32223278466776
96,71.15953197047667
2,8, 1, 8, 0, 4, 0.00,60.00,Sunday
7,24.0
8,23.57626123348685
9,23.68006619958902
96,73.96575926842199
2,8, 1, 8, 0, 5, 0.00,60.00,Sunday
7,23.562499999999998
8,23.01023974702769
9,23.120613772669825
96,76.5487880263738
2,8, 1, 8, 0, 6, 0.00,60.00,Sunday
7,23.362499999999998
8,22.5871484103224
9,22.67105635575911
96,78.69264329749541
2,8, 1, 8, 0, 7, 0.00,60.00,Sunday
7,25.9
8,22.788958113662678
9,22.831971729654666
96,77.95700194707693
2,8, 1, 8, 0, 8, 0.00,60.00,Sunday
7,28.4625
8,23.85187100240772
9,23.842652862998436
96,73.36720030876278
2,8, 1, 8, 0, 9, 0.00,60.00,Sunday
7,30.4125
8,25.665428541914907
9,25.631682062923806
96,65.94264923772454
2,8, 1, 8, 0,10, 0.00,60.00,Sunday
7,32.0125
8,27.88386070715394
9,27.820665773632304
96,57.964456480791827
2,8, 1, 8, 0,11, 0.00,60.00,Sunday
7,32.9375
8,30.200259660792569
9,30.09206714998187
96,50.80926596074337
2,8, 1, 8, 0,12, 0.00,60.00,Sunday
7,34.262499999999999
8,32.39941632249255
9,32.22567743185331
96,44.98392439796931
2,8, 1, 8, 0,13, 0.00,60.00,Sunday
7,35.3375
8,34.388439658625419
9,34.13650348426003
96,40.408176159055447
2,8, 1, 8, 0,14, 0.00,60.00,Sunday
7,36.475
8,36.1889915121496
9,35.87088861941571
96,36.69968569067926
2,8, 1, 8, 0,15, 0.00,60.00,Sunday
7,37.25
8,37.75072529005271
9,37.42968866365396
96,33.682303053375218
2,8, 1, 8, 0,16, 0.00,60.00,Sunday
7,35.77499999999999
8,38.71985582747392
9,38.512597307940087
96,31.73304842313218
2,8, 1, 8, 0,17, 0.00,60.00,Sunday
7,31.175
8,38.44784600635041
9,38.44564722626131
96,31.86527004205619
2,8, 1, 8, 0,18, 0.00,60.00,Sunday
7,27.5
8,35.511394630963028
9,35.95122683993173
96,36.64777654394597
2,8, 1, 8, 0,19, 0.00,60.00,Sunday
7,25.725
8,30.800377118721259
9,31.294462753440216
96,47.602999355588369
2,8, 1, 8, 0,20, 0.00,60.00,Sunday
7,25.2
8,27.84098011407218
9,28.210910805136434
96,56.761282420158668
2,8, 1, 8, 0,21, 0.00,60.00,Sunday
7,25.2625
8,26.414228967019729
9,26.530662360629426
96,62.65666687134073
2,8, 1, 8, 0,22, 0.00,60.00,Sunday
7,25.362499999999998
8,25.47183248003759
9,25.557351744445307
96,66.36434531518631
2,8, 1, 8, 0,23, 0.00,60.00,Sunday
7,25.525
8,24.747661354727407
9,24.82970862708954
96,69.24441131516437
2,8, 1, 8, 0,24, 0.00,60.00,Sunday
7,25.6
8,24.182356291444827
9,24.260330893550767
96,71.60717112488875
2,9, 1, 9, 0, 1, 0.00,60.00,Monday
7,25.4125
8,23.714274972221334
9,23.7975366489555
96,73.62562467289814
2,9, 1, 9, 0, 2, 0.00,60.00,Monday
7,25.049999999999998
8,23.300094658964406
9,23.390928983793218
96,75.45692862608259
2,9, 1, 9, 0, 3, 0.00,60.00,Monday
7,24.5875
8,22.911334150760678
9,23.013452584236818
96,77.17403939131174
2,9, 1, 9, 0, 4, 0.00,60.00,Monday
7,24.2125
8,22.533552134325669
9,22.646885437205378
96,78.89806467496978
2,9, 1, 9, 0, 5, 0.00,60.00,Monday
7,24.0375
8,22.170000386377578
9,22.29299943118876
96,80.63630467231369
2,9, 1, 9, 0, 6, 0.00,60.00,Monday
7,24.0625
8,21.855469020838947
9,21.978854776625427
96,82.22170407737723
2,9, 1, 9, 0, 7, 0.00,60.00,Monday
7,24.475
8,21.729600108855867
9,21.82517114584414
96,83.04106984055628
2,9, 1, 9, 0, 8, 0.00,60.00,Monday
7,26.074999999999997
8,22.267263901559184
9,22.276834825119037
96,80.84088460661308
2,9, 1, 9, 0, 9, 0.00,60.00,Monday
7,27.9
8,23.792416528582778
9,23.723028558097757
96,74.09040623042756
2,9, 1, 9, 0,10, 0.00,60.00,Monday
7,29.937499999999998
8,26.043942383586349
9,25.863672531172069
96,65.19883341194931
2,9, 1, 9, 0,11, 0.00,60.00,Monday
7,31.737499999999998
8,28.646027419270128
9,28.472285751172796
96,55.949709716047227
2,9, 1, 9, 0,12, 0.00,60.00,Monday
7,33.05
8,31.247500041494264
9,30.991905247660424
96,48.362147064628519
2,9, 1, 9, 0,13, 0.00,60.00,Monday
7,34.625
8,33.57350291269716
9,33.2184128089814
96,42.622125820142908
2,9, 1, 9, 0,14, 0.00,60.00,Monday
7,33.175
8,35.499897051420848
9,35.22694172109217
96,38.088252450285889
2,9, 1, 9, 0,15, 0.00,60.00,Monday
7,32.2125
8,36.444871265588137
9,36.256723755780217
96,35.9643184192805
2,9, 1, 9, 0,16, 0.00,60.00,Monday
7,31.9625
8,36.45370702881958
9,36.32933406496298
96,35.80511258593137
2,9, 1, 9, 0,17, 0.00,60.00,Monday
7,31.637500000000004
8,35.78662373755705
9,35.74527114481362
96,36.96954851344992
2,9, 1, 9, 0,18, 0.00,60.00,Monday
7,30.725
8,34.61647935657469
9,34.668816891333168
96,39.25180150806331
2,9, 1, 9, 0,19, 0.00,60.00,Monday
7,29.200000000000004
8,33.133121032849299
9,33.219305072249799
96,42.55627892558918
2,9, 1, 9, 0,20, 0.00,60.00,Monday
7,27.7875
8,31.550150910642328
9,31.6577341991921
96,46.44239119370696
2,9, 1, 9, 0,21, 0.00,60.00,Monday
7,26.737499999999998
8,30.034012441150375
9,30.149960871839594
96,50.607502075853037
2,9, 1, 9, 0,22, 0.00,60.00,Monday
7,25.9625
8,28.69308591735909
9,28.804663761088326
96,54.67030971390167
2,9, 1, 9, 0,23, 0.00,60.00,Monday
7,25.199999999999997
8,27.534413277267466
9,27.629893325985628
96,58.52510732065343
2,9, 1, 9, 0,24, 0.00,60.00,Monday
7,24.65
8,26.495930249937694
9,26.594531388401614
96,62.186499810792927
2,10, 1,10, 0, 1, 0.00,60.00,Tuesday
7,24.25
8,25.57120143676882
9,25.671486868192596
96,65.66067660624594
2,10, 1,10, 0, 2, 0.00,60.00,Tuesday
7,23.7875
8,24.745143019767768
9,24.84908040257117
96,68.93393156503262
2,10, 1,10, 0, 3, 0.00,60.00,Tuesday
7,23.35
8,23.9881500850093
9,24.096349259984959
96,72.09275446082829
2,10, 1,10, 0, 4, 0.00,60.00,Tuesday
7,23.324999999999997
8,23.312014238643415
9,23.4200873670973
96,75.13195549917599
2,10, 1,10, 0, 5, 0.00,60.00,Tuesday
7,23.15
8,22.73655706792276
9,22.84554018144926
96,77.86706677157049
2,10, 1,10, 0, 6, 0.00,60.00,Tuesday
7,22.812500000000005
8,22.312531862116939
9,22.39702303202585
96,80.06345621088787
2,10, 1,10, 0, 7, 0.00,60.00,Tuesday
7,25.450000000000004
8,22.497224299507456
9,22.540258392921655
96,79.39930004189746
2,10, 1,10, 0, 8, 0.00,60.00,Tuesday
7,28.1
8,23.545176924919529
9,23.536690124415423
96,74.82138607608732
2,10, 1,10, 0, 9, 0.00,60.00,Tuesday
7,29.762499999999997
8,25.336831276609826
9,25.300611601367647
96,67.36590642720513
2,10, 1,10, 0,10, 0.00,60.00,Tuesday
7,31.275
8,27.51097023640167
9,27.44372610994281
96,59.393042389298589
2,10, 1,10, 0,11, 0.00,60.00,Tuesday
7,32.612500000000007
8,29.830161610421678
9,29.723793878071257
96,52.05019996006146
2,10, 1,10, 0,12, 0.00,60.00,Tuesday
7,33.6
8,32.092552371846327
9,31.925842631868226
96,45.90147957189622
2,10, 1,10, 0,13, 0.00,60.00,Tuesday
7,34.8375
8,34.10722839157385
9,33.86985760668459
96,41.14082383270927
2,10, 1,10, 0,14, 0.00,60.00,Tuesday
7,35.5875
8,35.92481284857891
9,35.620337523364458
96,37.31991671174187
2,10, 1,10, 0,15, 0.00,60.00,Tuesday
7,36.6375
8,37.42980727596574
9,37.12878897415331
96,34.33734639086909
2,10, 1,10, 0,16, 0.00,60.00,Tuesday
7,37.1375
8,38.401674202399167
9,38.18456128235156
96,32.39563913654841
2,10, 1,10, 0,17, 0.00,60.00,Tuesday
7,37.16250000000001
8,38.70097363244987
9,38.57694828213552
96,31.696077893828
2,10, 1,10, 0,18, 0.00,60.00,Tuesday
7,35.6375
8,38.11419151042505
9,38.106940232573609
96,32.51327099765796
2,10, 1,10, 0,19, 0.00,60.00,Tuesday
7,33.6375
8,36.75608296920345
9,36.84650084815456
96,34.86336320430144
2,10, 1,10, 0,20, 0.00,60.00,Tuesday
7,30.625
8,34.99035159309817
9,35.10939809111275
96,38.415563610364987
2,10, 1,10, 0,21, 0.00,60.00,Tuesday
7,28.2625
8,33.04319820540581
9,33.19315299479485
96,42.789280645987897
2,10, 1,10, 0,22, 0.00,60.00,Tuesday
7,26.5125
8,31.170932121807039
9,31.321296307339546
96,47.58760282628483
2,10, 1,10, 0,23, 0.00,60.00,Tuesday
7,26.487499999999998
8,29.560689684317525
9,29.699734557139736
96,52.18269413670809
2,10, 1,10, 0,24, 0.00,60.00,Tuesday
7,26.65
8,28.246102164240108
9,28.368981923867364
96,56.326801795534048
2,11, 1,11, 0, 1, 0.00,60.00,Wednesday
7,26.125
8,27.163163717158765
9,27.266369845021126
96,60.06367516203394
2,11, 1,11, 0, 2, 0.00,60.00,Wednesday
7,25.9625
8,26.25188927153449
9,26.352397299648464
96,63.385058826360268
2,11, 1,11, 0, 3, 0.00,60.00,Wednesday
7,25.6875
8,25.48248744097166
9,25.582947239405468
96,66.32454128993945
2,11, 1,11, 0, 4, 0.00,60.00,Wednesday
7,25.5
8,24.823086556930286
9,24.924107472526719
96,68.99028757978125
2,11, 1,11, 0, 5, 0.00,60.00,Wednesday
7,25.312500000000005
8,24.250768942252934
9,24.351996933791
96,71.43210163875489
2,11, 1,11, 0, 6, 0.00,60.00,Wednesday
7,25.137500000000004
8,23.796861434286826
9,23.879457333366675
96,73.54254769919538
2,11, 1,11, 0, 7, 0.00,60.00,Wednesday
7,25.6625
8,23.66353388036744
9,23.712598225680109
96,74.32605210992284
2,11, 1,11, 0, 8, 0.00,60.00,Wednesday
7,26.437500000000005
8,23.84972884714615
9,23.866912069805303
96,73.67439586581199
2,11, 1,11, 0, 9, 0.00,60.00,Wednesday
7,28.1375
8,24.69040292254912
9,24.62012299380965
96,70.42827976061546
2,11, 1,11, 0,10, 0.00,60.00,Wednesday
7,29.437500000000005
8,26.490999450071337
9,26.343686957561155
96,63.56903505456661
2,11, 1,11, 0,11, 0.00,60.00,Wednesday
7,30.95
8,28.83973768731773
9,28.597795697060805
96,55.69617395306879
2,11, 1,11, 0,12, 0.00,60.00,Wednesday
7,32.7
8,31.21634122469856
9,30.886512107175027
96,48.79516617603748
2,11, 1,11, 0,13, 0.00,60.00,Wednesday
7,34.05
8,33.416969750065749
9,33.102250125781669
96,43.020670152508589
2,11, 1,11, 0,14, 0.00,60.00,Wednesday
7,35.125
8,35.3923249567717
9,35.08851550881779
96,38.49314868264332
2,11, 1,11, 0,15, 0.00,60.00,Wednesday
7,35.8125
8,36.919015103425277
9,36.63824851647651
96,35.3240590281961
2,11, 1,11, 0,16, 0.00,60.00,Wednesday
7,35.125
8,37.72340577213778
9,37.549888598008447
96,33.5906136747772
2,11, 1,11, 0,17, 0.00,60.00,Wednesday
7,32.9125
8,37.53887336387456
9,37.49002458917769
96,33.70177586517008
2,11, 1,11, 0,18, 0.00,60.00,Wednesday
7,31.9625
8,36.472077576772978
9,36.51846976916586
96,35.53600511361739
2,11, 1,11, 0,19, 0.00,60.00,Wednesday
7,30.75
8,34.83879007474924
9,34.92924041359369
96,38.792267879066589
2,11, 1,11, 0,20, 0.00,60.00,Wednesday
7,28.937499999999998
8,33.024097747228839
9,33.13956313397437
96,42.86736646027238
2,11, 1,11, 0,21, 0.00,60.00,Wednesday
7,27.862500000000006
8,31.305535694597759
9,31.428585201775154
96,47.22310970374255
2,11, 1,11, 0,22, 0.00,60.00,Wednesday
7,26.975
8,29.783575823535828
9,29.906139842607325
96,51.52321831273477
2,11, 1,11, 0,23, 0.00,60.00,Wednesday
7,26.1
8,28.45906600603216
9,28.579624622765686
96,55.631196738621699
2,11, 1,11, 0,24, 0.00,60.00,Wednesday
7,25.4875
8,27.29670517157215
9,27.406216059919879