Program Version,EnergyPlus, Version 8.9.0-40101eaafd, YMD=2025.09.04 06:06
1,5,Environment Title[],Latitude[deg],Longitude[deg],Time Zone[],Elevation[m]
2,8,Day of Simulation[],Month[],Day of Month[],DST Indicator[1=yes 0=no],Hour[],StartMinute[],EndMinute[],DayType
3,5,Cumulative Day of Simulation[],Month[],Day of Month[],DST Indicator[1=yes 0=no],DayType  ! When Daily Report Variables Requested
4,2,Cumulative Days of Simulation[],Month[]  ! When Monthly Report Variables Requested
5,1,Cumulative Days of Simulation[] ! When Run Period Report Variables Requested
6,1,Calendar Year of Simulation[] ! When Annual Report Variables Requested
7,1,Environment,Site Outdoor Air Drybulb Temperature [C] !Hourly
8,1,ZONE DEFAULT,Zone Mean Radiant Temperature [C] !Hourly
9,1,ZONE DEFAULT,Zone Mean Air Temperature [C] !Hourly
96,1,ZONE DEFAULT,Zone Air Relative Humidity [%] !Hourly
End of Data Dictionary
1,TROPOS3D MODEL, -23.63, -46.66,  -3.00, 801.90
2,1, 1, 1, 0, 1, 0.00,60.00,Sunday
7,24.375
8,25.08708467620087
9,25.160357325055334
96,63.18482365786529
2,1, 1, 1, 0, 2, 0.00,60.00,Sunday
7,24.0
8,24.263834146641345
9,24.345217337179606
96,66.32809031890416
2,1, 1, 1, 0, 3, 0.00,60.00,Sunday
7,24.0
8,23.559979516992969
9,23.645035099262203
96,69.17548018068581
2,1, 1, 1, 0, 4, 0.00,60.00,Sunday
7,23.375
8,22.95804197551603
9,23.053631834990207
96,71.67532302972097
2,1, 1, 1, 0, 5, 0.00,60.00,Sunday
7,23.0
8,22.4040272259703
9,22.513458978204466
96,74.0527898274933
2,1, 1, 1, 0, 6, 0.00,60.00,Sunday
7,23.0
8,21.940219092454769
9,22.048010053328146
96,76.1791384966064
2,1, 1, 1, 0, 7, 0.00,60.00,Sunday
7,23.0625
8,21.83970661577028
9,21.91375752545348
96,76.80593388561972
2,1, 1, 1, 0, 8, 0.00,60.00,Sunday
7,23.6625
8,22.466482176371988
9,22.500145206172488
96,74.13523700398096
2,1, 1, 1, 0, 9, 0.00,60.00,Sunday
7,24.0
8,23.83142081918219
9,23.895636781484265
96,68.16575872419638
2,1, 1, 1, 0,10, 0.00,60.00,Sunday
7,25.437499999999998
8,25.599782092248839
9,25.654533218202319
96,61.40289093674211
2,1, 1, 1, 0,11, 0.00,60.00,Sunday
7,27.3625
8,27.5201243769095
9,27.52282873199394
96,55.03602479816588
2,1, 1, 1, 0,12, 0.00,60.00,Sunday
7,28.625
8,29.390008424151718
9,29.345210049111075
96,49.52200660617636
2,1, 1, 1, 0,13, 0.00,60.00,Sunday
7,29.625
8,31.096644113735633
9,31.003727838682815
96,45.040498738077278
2,1, 1, 1, 0,14, 0.00,60.00,Sunday
7,30.0
8,32.61144003485037
9,32.478999829887587
96,41.42691148643875
2,1, 1, 1, 0,15, 0.00,60.00,Sunday
7,30.0
8,33.6689352557958
9,33.55537073044671
96,38.99248467664097
2,1, 1, 1, 0,16, 0.00,60.00,Sunday
7,30.625
8,34.29953330990537
9,34.19918484256056
96,37.62171073860066
2,1, 1, 1, 0,17, 0.00,60.00,Sunday
7,28.5
8,34.480438150712988
9,34.426856375121108
96,37.12419102930143
2,1, 1, 1, 0,18, 0.00,60.00,Sunday
7,26.375
8,33.9620963036161
9,33.998616681658408
96,37.998616698911238
2,1, 1, 1, 0,19, 0.00,60.00,Sunday
7,26.3125
8,32.76303462226645
9,32.89840803354178
96,40.41833346626515
2,1, 1, 1, 0,20, 0.00,60.00,Sunday
7,26.8125
8,31.19824810240257
9,31.327085458432636
96,44.182028766209558
2,1, 1, 1, 0,21, 0.00,60.00,Sunday
7,27.0
8,29.664721198431374
9,29.76607813362698
96,48.306602104330078
2,1, 1, 1, 0,22, 0.00,60.00,Sunday
7,26.375
8,28.301952589980805
9,28.384846322105099
96,52.30781844763364
2,1, 1, 1, 0,23, 0.00,60.00,Sunday
7,25.375
8,27.093746705033508
9,27.166667167586348
96,56.143037052000497
2,1, 1, 1, 0,24, 0.00,60.00,Sunday
7,25.0
8,26.02118642322193
9,26.088778461218298
96,59.81193322379672
2,2, 1, 2, 0, 1, 0.00,60.00,Monday
7,24.375
8,25.088843579396508
9,25.161556746965134
96,63.18024664027622
2,2, 1, 2, 0, 2, 0.00,60.00,Monday
7,24.0
8,24.281067181746459
9,24.360218048422849
96,66.26814197194394
2,2, 1, 2, 0, 3, 0.00,60.00,Monday
7,23.375
8,23.576855042932686
9,23.661728268998787
96,69.0931906798023
2,2, 1, 2, 0, 4, 0.00,60.00,Monday
7,23.0
8,22.95768435580429
9,23.04662351262684
96,71.69782795242289
2,2, 1, 2, 0, 5, 0.00,60.00,Monday
7,23.0
8,22.414123877051627
9,22.507945324143237
96,74.07736727492076
2,2, 1, 2, 0, 6, 0.00,60.00,Monday
7,23.0
8,21.9734606502989
9,22.063929019318708
96,76.10510912311037
2,2, 1, 2, 0, 7, 0.00,60.00,Monday
7,23.0
8,21.836491120457155
9,21.902676402362986
96,76.85592478382698
2,2, 1, 2, 0, 8, 0.00,60.00,Monday
7,23.625
8,22.193665639210708
9,22.25113714350377
96,75.26033557896733
2,2, 1, 2, 0, 9, 0.00,60.00,Monday
7,24.0
8,23.24158828398067
9,23.26145234007132
96,70.81421442075491
2,2, 1, 2, 0,10, 0.00,60.00,Monday
7,24.812499999999998
8,24.949406220335356
9,24.980800953141569
96,63.90437231393008
2,2, 1, 2, 0,11, 0.00,60.00,Monday
7,26.3625
8,26.923863746238653
9,26.944776121662224
96,56.91888536319828
2,2, 1, 2, 0,12, 0.00,60.00,Monday
7,27.625
8,28.79187397122522
9,28.794848927213708
96,51.10753987507176
2,2, 1, 2, 0,13, 0.00,60.00,Monday
7,28.6875
8,30.477717483578148
9,30.424873876450204
96,46.54037866979965
2,2, 1, 2, 0,14, 0.00,60.00,Monday
7,29.6625
8,32.135457304420679
9,32.01427423500996
96,42.5292931296116
2,2, 1, 2, 0,15, 0.00,60.00,Monday
7,30.0
8,32.89883453544134
9,32.93973648923951
96,40.35757966950255
2,2, 1, 2, 0,16, 0.00,60.00,Monday
7,29.9375
8,32.32558933050353
9,32.58464642031604
96,41.17310446913851
2,2, 1, 2, 0,17, 0.00,60.00,Monday
7,27.4625
8,31.423304101320399
9,31.7385148122092
96,43.161579292881
2,2, 1, 2, 0,18, 0.00,60.00,Monday
7,22.875
8,29.75774468278221
9,30.100859749294324
96,47.339684715379828
2,2, 1, 2, 0,19, 0.00,60.00,Monday
7,21.9375
8,27.6894328387619
9,28.000752344596749
96,53.43970104232446
2,2, 1, 2, 0,20, 0.00,60.00,Monday
7,22.1875
8,25.99423259684757
9,26.229443033022088
96,59.274285872063249
2,2, 1, 2, 0,21, 0.00,60.00,Monday
7,22.0
8,24.8015378582621
9,25.009145136016735
96,63.71855076725842
2,2, 1, 2, 0,22, 0.00,60.00,Monday
7,21.874999999999998
8,23.716650343632599
9,23.894938048347894
96,68.10598320264994
2,2, 1, 2, 0,23, 0.00,60.00,Monday
7,21.925
8,22.842809931001864
9,22.990210914600348
96,71.92184025139673
2,2, 1, 2, 0,24, 0.00,60.00,Monday
7,22.0
8,22.199324555605459
9,22.329563061413258
96,74.86301021129064
2,3, 1, 3, 0, 1, 0.00,60.00,Tuesday
7,21.6875
8,21.685082855195835
9,21.799654975612105
96,77.31160274759776
2,3, 1, 3, 0, 2, 0.00,60.00,Tuesday
7,21.1875
8,21.327175667731827
9,21.418685260714484
96,79.12163430133265
2,3, 1, 3, 0, 3, 0.00,60.00,Tuesday
7,21.0
8,20.991023798121668
9,21.077013649954176
96,80.79416286054155
2,3, 1, 3, 0, 4, 0.00,60.00,Tuesday
7,21.0
8,20.572678462059124
9,20.665065156805818
96,82.86812846309315
2,3, 1, 3, 0, 5, 0.00,60.00,Tuesday
7,21.0
8,20.234124151169345
9,20.31022404013534
96,84.70173254232901
2,3, 1, 3, 0, 6, 0.00,60.00,Tuesday
7,21.0
8,19.9705412553538
9,20.028836199236179
96,86.18862667732479
2,3, 1, 3, 0, 7, 0.00,60.00,Tuesday
7,21.125
8,19.87057368179384
9,19.898719878879957
96,86.8889662711938
2,3, 1, 3, 0, 8, 0.00,60.00,Tuesday
7,21.7
8,20.054216573018665
9,20.040244969941754
96,86.1467576168042
2,3, 1, 3, 0, 9, 0.00,60.00,Tuesday
7,22.625
8,20.561586334614935
9,20.511211921504338
96,83.70280522397046
2,3, 1, 3, 0,10, 0.00,60.00,Tuesday
7,24.1875
8,21.32761337632509
9,21.259852033955718
96,79.9781841653395
2,3, 1, 3, 0,11, 0.00,60.00,Tuesday
7,26.2125
8,22.470183955611956
9,22.343152155030809
96,74.91972651334848
2,3, 1, 3, 0,12, 0.00,60.00,Tuesday
7,27.625
8,24.227292437797446
9,24.093594418001275
96,67.45292982989128
2,3, 1, 3, 0,13, 0.00,60.00,Tuesday
7,28.625
8,26.48706684071226
9,26.303647187141427
96,59.169058452738109
2,3, 1, 3, 0,14, 0.00,60.00,Tuesday
7,29.625
8,28.879955842184779
9,28.729841679747048
96,51.343984799096748
2,3, 1, 3, 0,15, 0.00,60.00,Tuesday
7,28.75
8,29.993376662074895
9,30.09689494876865
96,47.408405739958137
2,3, 1, 3, 0,16, 0.00,60.00,Tuesday
7,27.874999999999998
8,29.765276338246389
9,29.99199544314104
96,47.681769478036319
2,3, 1, 3, 0,17, 0.00,60.00,Tuesday
7,26.675
8,29.484302357548228
9,29.647729799680456
96,48.615661505948079
2,3, 1, 3, 0,18, 0.00,60.00,Tuesday
7,25.375
8,29.659333438849087
9,29.77815824509618
96,48.23356936499042
2,3, 1, 3, 0,19, 0.00,60.00,Tuesday
7,24.812500000000005
8,29.3068844396254
9,29.463236137071254
96,49.11099185863163
2,3, 1, 3, 0,20, 0.00,60.00,Tuesday
7,23.0125
8,27.995631680149488
9,28.219948491419986
96,52.77362910298454
2,3, 1, 3, 0,21, 0.00,60.00,Tuesday
7,22.0
8,25.77904724230151
9,26.075979926884196
96,59.83960308558328
2,3, 1, 3, 0,22, 0.00,60.00,Tuesday
7,21.6875
8,23.926070160355203
9,24.173253543303035
96,66.99013179313462
2,3, 1, 3, 0,23, 0.00,60.00,Tuesday
7,21.1875
8,22.6478884603069
9,22.821671231615967
96,72.6517954461506
2,3, 1, 3, 0,24, 0.00,60.00,Tuesday
7,21.625
8,21.763872214407117
9,21.884065455539209
96,76.91768911269277
2,4, 1, 4, 0, 1, 0.00,60.00,Wednesday
7,21.375
8,21.124952258759767
9,21.22735308777974
96,80.06294217772227
2,4, 1, 4, 0, 2, 0.00,60.00,Wednesday
7,21.0
8,20.610908582952207
9,20.70242103891054
96,82.67843745672232
2,4, 1, 4, 0, 3, 0.00,60.00,Wednesday
7,21.625
8,20.194799666965794
9,20.27582881638555
96,84.89877857961189
2,4, 1, 4, 0, 4, 0.00,60.00,Wednesday
7,22.0
8,19.986274098064486
9,20.030166132944609
96,86.20688609870854
2,4, 1, 4, 0, 5, 0.00,60.00,Wednesday
7,21.375
8,19.92964986152884
9,19.95321474912434
96,86.60300107893255
2,4, 1, 4, 0, 6, 0.00,60.00,Wednesday
7,21.0
8,19.59636861448277
9,19.63714140056593
96,88.30894638601129
2,4, 1, 4, 0, 7, 0.00,60.00,Wednesday
7,21.125
8,19.495189281761549
9,19.50998042695217
96,89.01253873795165
2,4, 1, 4, 0, 8, 0.00,60.00,Wednesday
7,21.7
8,19.98526019886575
9,19.973857951614368
96,86.50344097407208
2,4, 1, 4, 0, 9, 0.00,60.00,Wednesday
7,22.625
8,20.573402760448969
9,20.510330902830636
96,83.71093083728906
2,4, 1, 4, 0,10, 0.00,60.00,Wednesday
7,23.125000000000005
8,22.073180644061794
9,21.909306794769578
96,76.87707401926201
2,4, 1, 4, 0,11, 0.00,60.00,Wednesday
7,24.325
8,23.873868723442727
9,23.789975681281296
96,68.59838746203076
2,4, 1, 4, 0,12, 0.00,60.00,Wednesday
7,26.25
8,24.66607943914015
9,24.657138878429984
96,65.14360036837764
2,4, 1, 4, 0,13, 0.00,60.00,Wednesday
7,26.812500000000005
8,25.507649369985768
9,25.518761287338859
96,61.90129348500336
2,4, 1, 4, 0,14, 0.00,60.00,Wednesday
7,28.1375
8,26.641888870723123
9,26.63036578832547
96,57.988773589651369
2,4, 1, 4, 0,15, 0.00,60.00,Wednesday
7,28.375
8,27.768296925379027
9,27.76025965767583
96,54.273027640084247
2,4, 1, 4, 0,16, 0.00,60.00,Wednesday
7,28.6875
8,28.51390835027605
9,28.540267929777
96,51.86247412369562
2,4, 1, 4, 0,17, 0.00,60.00,Wednesday
7,29.0375
8,28.793521630436353
9,28.82810706665175
96,51.00853144915922
2,4, 1, 4, 0,18, 0.00,60.00,Wednesday
7,29.0
8,28.71460373307276
9,28.861715077775945
96,50.909702191659359
2,4, 1, 4, 0,19, 0.00,60.00,Wednesday
7,28.375
8,27.53320517705169
9,27.812866458967095
96,54.116733304810598
2,4, 1, 4, 0,20, 0.00,60.00,Wednesday
7,27.375
8,26.164755480459108
9,26.406603553816873
96,58.749196381998228
2,4, 1, 4, 0,21, 0.00,60.00,Wednesday
7,27.0
8,25.08344874034045
9,25.256318583951644
96,62.87437178667548
2,4, 1, 4, 0,22, 0.00,60.00,Wednesday
7,26.874999999999998
8,24.587330011917666
9,24.694683598845626
96,65.00741783379798
2,4, 1, 4, 0,23, 0.00,60.00,Wednesday
7,26.925
8,24.364218212756936
9,24.46208840703803
96,65.9183608111237
2,4, 1, 4, 0,24, 0.00,60.00,Wednesday
7,26.375
8,24.153468005376394
9,24.191734441660743
96,66.9843830630361
2,5, 1, 5, 0, 1, 0.00,60.00,Thursday
7,24.75
8,23.853197840906529
9,23.83307748606115
96,68.40931260053378
2,5, 1, 5, 0, 2, 0.00,60.00,Thursday
7,24.0
8,23.471258001900539
9,23.468281399224585
96,69.91358914932184
2,5, 1, 5, 0, 3, 0.00,60.00,Thursday
7,24.0
8,23.07775990764378
9,23.085691567186026
96,71.5479999201992
2,5, 1, 5, 0, 4, 0.00,60.00,Thursday
7,24.0
8,22.70837278634079
9,22.727926297082147
96,73.11524066729612
2,5, 1, 5, 0, 5, 0.00,60.00,Thursday
7,24.0
8,22.3711715415073
9,22.40164267952199
96,74.57826478112512
2,5, 1, 5, 0, 6, 0.00,60.00,Thursday
7,23.375
8,22.111290616795598
9,22.14419175438483
96,75.74101316172373
2,5, 1, 5, 0, 7, 0.00,60.00,Thursday
7,23.3125
8,22.258345395307637
9,22.28466072307061
96,75.09664476350392
2,5, 1, 5, 0, 8, 0.00,60.00,Thursday
7,23.8125
8,23.073305427905966
9,23.135733378070279
96,71.3447350654574
2,5, 1, 5, 0, 9, 0.00,60.00,Thursday
7,25.25
8,24.549952538954658
9,24.743821052935048
96,64.81724082006618
2,5, 1, 5, 0,10, 0.00,60.00,Thursday
7,26.5625
8,26.390267835702006
9,26.56146993164746
96,58.21620478655946
2,5, 1, 5, 0,11, 0.00,60.00,Thursday
7,27.5875
8,28.213684697153558
9,28.311977688110966
96,52.55741401780777
2,5, 1, 5, 0,12, 0.00,60.00,Thursday
7,28.0
8,29.795455154089493
9,29.816078021564047
96,48.18028283207568
2,5, 1, 5, 0,13, 0.00,60.00,Thursday
7,29.25
8,31.2129212454194
9,31.15707154281882
96,44.63891976891545
2,5, 1, 5, 0,14, 0.00,60.00,Thursday
7,30.0
8,32.70359163239559
9,32.57985168703671
96,41.194486262230729
2,5, 1, 5, 0,15, 0.00,60.00,Thursday
7,30.0
8,34.03080059333452
9,33.91808001947941
96,38.214848952707189
2,5, 1, 5, 0,16, 0.00,60.00,Thursday
7,29.9375
8,34.804709295366887
9,34.78100920191252
96,36.41883688057433
2,5, 1, 5, 0,17, 0.00,60.00,Thursday
7,28.7125
8,34.828176079746189
9,34.863843998463227
96,36.23835068691108
2,5, 1, 5, 0,18, 0.00,60.00,Thursday
7,27.375
8,34.29831260908554
9,34.36179612284353
96,37.24930840015165
2,5, 1, 5, 0,19, 0.00,60.00,Thursday
7,26.812500000000005
8,33.09652488230622
9,33.25104395078664
96,39.63410176798757
2,5, 1, 5, 0,20, 0.00,60.00,Thursday
7,26.2625
8,31.39664739881812
9,31.540304329751768
96,43.64690109304288
2,5, 1, 5, 0,21, 0.00,60.00,Thursday
7,26.0
8,29.724952288043384
9,29.83178975655423
96,48.112336388309049
2,5, 1, 5, 0,22, 0.00,60.00,Thursday
7,25.812500000000005
8,28.287686248904405
9,28.372232406460648
96,52.33847333793318
2,5, 1, 5, 0,23, 0.00,60.00,Thursday
7,25.8875
8,27.07361526341664
9,27.14429923208005
96,56.225098468671749
2,5, 1, 5, 0,24, 0.00,60.00,Thursday
7,24.75
8,25.992674832010985
9,26.064195232238963
96,59.89512112067917
2,6, 1, 6, 0, 1, 0.00,60.00,Friday
7,23.375
8,24.984821835519207
9,25.066203681928859
96,63.52261787099826
2,6, 1, 6, 0, 2, 0.00,60.00,Friday
7,23.0
8,24.07183534585063
9,24.158976463381714
96,67.05394404558312
2,6, 1, 6, 0, 3, 0.00,60.00,Friday
7,23.0
8,23.291668080982686
9,23.37953645111036
96,70.27170525898933
2,6, 1, 6, 0, 4, 0.00,60.00,Friday
7,23.0
8,22.64547647138837
9,22.7365836594023
96,73.0573001657982
2,6, 1, 6, 0, 5, 0.00,60.00,Friday
7,23.0
8,22.119611513544876
9,22.216769098271344
96,75.40062023532795
2,6, 1, 6, 0, 6, 0.00,60.00,Friday
7,22.375
8,21.705753079847914
9,21.806052221231153
96,77.2970705210568
2,6, 1, 6, 0, 7, 0.00,60.00,Friday
7,22.437500000000005
8,21.516752797327464
9,21.584308285583924
96,78.35202464934487
2,6, 1, 6, 0, 8, 0.00,60.00,Friday
7,22.8875
8,21.79596448297209
9,21.81361522379421
96,77.27560816152935
2,6, 1, 6, 0, 9, 0.00,60.00,Friday
7,23.625
8,22.616962074503033
9,22.59152127196461
96,73.72495651881302
2,6, 1, 6, 0,10, 0.00,60.00,Friday
7,24.437500000000005
8,23.716982862815553
9,23.660863734577306
96,69.1284455781792
2,6, 1, 6, 0,11, 0.00,60.00,Friday
7,26.1375
8,24.941301224894358
9,24.814149094336018
96,64.54683651420206
2,6, 1, 6, 0,12, 0.00,60.00,Friday
7,27.625
8,26.30975222018057
9,26.14311180123177
96,59.67566156068533
2,6, 1, 6, 0,13, 0.00,60.00,Friday
7,28.3125
8,27.5876357855822
9,27.410626513829535
96,55.39418720493464
2,6, 1, 6, 0,14, 0.00,60.00,Friday
7,28.1875
8,27.856329277605775
9,27.811376791869607
96,54.10078910323922
2,6, 1, 6, 0,15, 0.00,60.00,Friday
7,26.125
8,27.26809488880036
9,27.32206136188971
96,55.63612009738957
2,6, 1, 6, 0,16, 0.00,60.00,Friday
7,25.9375
8,26.843392449559759
9,26.953964604684708
96,56.849006086831369
2,6, 1, 6, 0,17, 0.00,60.00,Friday
7,25.5625
8,26.08569289655974
9,26.291188724441658
96,59.108559166767637
2,6, 1, 6, 0,18, 0.00,60.00,Friday
7,24.375
8,25.29950827380913
9,25.485982375548568
96,61.971439007627918
2,6, 1, 6, 0,19, 0.00,60.00,Friday
7,24.3125
8,24.516047513050393
9,24.69724109461879
96,64.95246469898287
2,6, 1, 6, 0,20, 0.00,60.00,Friday
7,23.5625
8,23.696941230321984
9,23.865685548750635
96,68.25658404869916
2,6, 1, 6, 0,21, 0.00,60.00,Friday
7,23.0
8,22.992256861455979
9,23.132820127004753
96,71.32484243939425
2,6, 1, 6, 0,22, 0.00,60.00,Friday
7,22.75
8,22.57138781980093
9,22.68091861668816
96,73.2964045589906
2,6, 1, 6, 0,23, 0.00,60.00,Friday
7,22.225
8,22.270666129584293
9,22.369060271709743
96,74.68565573809782
2,6, 1, 6, 0,24, 0.00,60.00,Friday
7,22.0
8,21.974432797789214
9,22.044548521723557
96,76.17092353108856
2,7, 1, 7, 0, 1, 0.00,60.00,Saturday
7,22.0
8,21.699073880396186
9,21.71758984290207
96,77.70648485532466
2,7, 1, 7, 0, 2, 0.00,60.00,Saturday
7,22.0
8,21.45091241534356
9,21.45214252968058
96,78.97860516180335
2,7, 1, 7, 0, 3, 0.00,60.00,Saturday
7,21.375
8,21.202107141417757
9,21.20922787885685
96,80.14850726534648
2,7, 1, 7, 0, 4, 0.00,60.00,Saturday
7,21.0
8,20.949670600023919
9,20.964105134934547
96,81.35517102121853
2,7, 1, 7, 0, 5, 0.00,60.00,Saturday
7,21.0
8,20.717883609063624
9,20.735969359827835
96,82.50525440080208
2,7, 1, 7, 0, 6, 0.00,60.00,Saturday
7,21.0
8,20.533526842809385
9,20.54481378779622
96,83.48277568899457
2,7, 1, 7, 0, 7, 0.00,60.00,Saturday
7,21.437500000000005
8,20.628541579144455
9,20.603613557897935
96,83.19306420748495
2,7, 1, 7, 0, 8, 0.00,60.00,Saturday
7,22.5125
8,21.34411657690719
9,21.283236727034
96,79.82572843081762
2,7, 1, 7, 0, 9, 0.00,60.00,Saturday
7,23.625
8,22.778375061519239
9,22.783925627636678
96,72.89703081320647
2,7, 1, 7, 0,10, 0.00,60.00,Saturday
7,24.5625
8,24.635716186063605
9,24.694710975864696
96,65.00187614513442
2,7, 1, 7, 0,11, 0.00,60.00,Saturday
7,25.5875
8,26.49226088439793
9,26.562877207272817
96,58.19100496302542
2,7, 1, 7, 0,12, 0.00,60.00,Saturday
7,26.625
8,28.075515829401078
9,28.11975094541851
96,53.12687151740859
2,7, 1, 7, 0,13, 0.00,60.00,Saturday
7,28.0
8,29.54914138359301
9,29.495338170184099
96,49.08014788335705
2,7, 1, 7, 0,14, 0.00,60.00,Saturday
7,28.85
8,31.317865268760526
9,31.15508063544615
96,44.6470342648921
2,7, 1, 7, 0,15, 0.00,60.00,Saturday
7,28.375
8,32.42498651094807
9,32.39756898020589
96,41.58842811053937
2,7, 1, 7, 0,16, 0.00,60.00,Saturday
7,26.0625
8,31.367899857292355
9,31.679944815932985
96,43.2936313314508
2,7, 1, 7, 0,17, 0.00,60.00,Saturday
7,24.3375
8,29.670958839314645
9,30.01643052268141
96,47.58441692627028
2,7, 1, 7, 0,18, 0.00,60.00,Saturday
7,22.75
8,27.99037544189298
9,28.301075736418519
96,52.51529847955404
2,7, 1, 7, 0,19, 0.00,60.00,Saturday
7,21.812500000000005
8,26.637772974591294
9,26.909044880336276
96,56.93632347418233
2,7, 1, 7, 0,20, 0.00,60.00,Saturday
7,21.8875
8,25.62461937106537
9,25.842472122305048
96,60.63230935073625
2,7, 1, 7, 0,21, 0.00,60.00,Saturday
7,22.0
8,24.658632266978125
9,24.860372644664403
96,64.28248219382037
2,7, 1, 7, 0,22, 0.00,60.00,Saturday
7,22.125000000000005
8,23.639145940009
9,23.824834662956968
96,68.39579313859537
2,7, 1, 7, 0,23, 0.00,60.00,Saturday
7,22.7
8,23.01042058890866
9,23.141675592959385
96,71.27910513329639
2,7, 1, 7, 0,24, 0.00,60.00,Saturday
7,23.0
8,22.65799021031866
9,22.75256301667858
96,72.98387709002661
2,8, 1, 8, 0, 1, 0.00,60.00,Sunday
7,23.0
8,22.382839576677186
9,22.428321593818873
96,74.43503168908527
2,8, 1, 8, 0, 2, 0.00,60.00,Sunday
7,23.0
8,22.134897474243219
9,22.127087246105746
96,75.81188338579912
2,8, 1, 8, 0, 3, 0.00,60.00,Sunday
7,22.375
8,21.873443977411683
9,21.872932764655546
96,76.98132251577323
2,8, 1, 8, 0, 4, 0.00,60.00,Sunday
7,22.0
8,21.563329984016226
9,21.580120938508079
96,78.3626791578554
2,8, 1, 8, 0, 5, 0.00,60.00,Sunday
7,22.0
8,21.236037048578696
9,21.26628793022435
96,79.88397225347149
2,8, 1, 8, 0, 6, 0.00,60.00,Sunday
7,22.0
8,20.96569451425708
9,20.994923106207368
96,81.22559874225272
2,8, 1, 8, 0, 7, 0.00,60.00,Sunday
7,21.6875
8,20.95841662444775
9,20.966697148934999
96,81.35880576712039
2,8, 1, 8, 0, 8, 0.00,60.00,Sunday
7,22.4375
8,21.474777169987364
9,21.473754801928967
96,78.8936560191429
2,8, 1, 8, 0, 9, 0.00,60.00,Sunday
7,23.625
8,22.5921603165728
9,22.574481993716846
96,73.81581074634616
2,8, 1, 8, 0,10, 0.00,60.00,Sunday
7,24.875
8,24.250036890107226
9,24.244764252618386
96,66.77757359397413
2,8, 1, 8, 0,11, 0.00,60.00,Sunday
7,26.4
8,26.203988936553175
9,26.154272690814478
96,59.63228324501715
2,8, 1, 8, 0,12, 0.00,60.00,Sunday
7,28.25
8,28.138081583209624
9,28.029114000761774
96,53.44509022981551
2,8, 1, 8, 0,13, 0.00,60.00,Sunday
7,29.375
8,29.99481005538596
9,29.812666897056564
96,48.220113558145879
2,8, 1, 8, 0,14, 0.00,60.00,Sunday
7,30.475
8,31.97813411986947
9,31.746859734541507
96,43.197095115615329
2,8, 1, 8, 0,15, 0.00,60.00,Sunday
7,30.375
8,32.91322916106027
9,32.92142839288109
96,40.40376193677988
2,8, 1, 8, 0,16, 0.00,60.00,Sunday
7,27.25
8,32.01746635126344
9,32.321188993720898
96,41.759862034431368
2,8, 1, 8, 0,17, 0.00,60.00,Sunday
7,25.85
8,30.509173173506754
9,30.85226824935351
96,45.38008156728287
2,8, 1, 8, 0,18, 0.00,60.00,Sunday
7,26.0
8,28.917602920736579
9,29.229395898677525
96,49.81147791154103
2,8, 1, 8, 0,19, 0.00,60.00,Sunday
7,25.812500000000005
8,27.448027769487547
9,27.72768073395465
96,54.34277075344692
2,8, 1, 8, 0,20, 0.00,60.00,Sunday
7,25.2625
8,26.143275428259327
9,26.393452952226594
96,58.755322627656799
2,8, 1, 8, 0,21, 0.00,60.00,Sunday
7,25.0
8,25.043274251215864
9,25.248764368511357
96,62.86783669491619
2,8, 1, 8, 0,22, 0.00,60.00,Sunday
7,24.75
8,24.276763501039424
9,24.444970408199536
96,65.94672254356354
2,8, 1, 8, 0,23, 0.00,60.00,Sunday
7,24.85
8,23.77312609331862
9,23.901464753883404
96,68.13177689386206
2,8, 1, 8, 0,24, 0.00,60.00,Sunday
7,24.375
8,23.36956352937297
9,23.448412381967758
96,70.00617781026269
2,9, 1, 9, 0, 1, 0.00,60.00,Monday
7,24.0
8,22.98247616721834
9,22.99134498867263
96,71.95793709100465
2,9, 1, 9, 0, 2, 0.00,60.00,Monday
7,24.0
8,22.60345976597572
9,22.608923691922
96,73.64538619848841
2,9, 1, 9, 0, 3, 0.00,60.00,Monday
7,24.0
8,22.230965058915865
9,22.250709610506765
96,75.26666774742333
2,9, 1, 9, 0, 4, 0.00,60.00,Monday
7,23.375
8,21.85723191816244
9,21.90426837873013
96,76.85857707783643
2,9, 1, 9, 0, 5, 0.00,60.00,Monday
7,23.0
8,21.50370172760394
9,21.5722779768883
96,78.4249056297837
2,9, 1, 9, 0, 6, 0.00,60.00,Monday
7,23.0
8,21.234725151477126
9,21.304871201150637
96,79.71933594089008
2,9, 1, 9, 0, 7, 0.00,60.00,Monday
7,23.437500000000005
8,21.359972932427497
9,21.42213863139588
96,79.16096867961696
2,9, 1, 9, 0, 8, 0.00,60.00,Monday
7,23.8875
8,22.15285917005097
9,22.189149786818267
96,75.55977639640128
2,9, 1, 9, 0, 9, 0.00,60.00,Monday
7,24.0
8,23.591377232931717
9,23.70451478697325
96,68.95952069046916
2,9, 1, 9, 0,10, 0.00,60.00,Monday
7,24.750000000000005
8,25.41974737897002
9,25.509628100583556
96,61.920672694250857
2,9, 1, 9, 0,11, 0.00,60.00,Monday
7,26.325
8,27.347752755510279
9,27.38048838073812
96,55.478430690743739
2,9, 1, 9, 0,12, 0.00,60.00,Monday
7,27.625
8,29.155299608000694
9,29.155787438122883
96,50.05004466849782
2,9, 1, 9, 0,13, 0.00,60.00,Monday
7,28.6875
8,30.8205519275721
9,30.767987039384907
96,45.63676107333394
2,9, 1, 9, 0,14, 0.00,60.00,Monday
7,30.2875
8,32.39548748865368
9,32.29936886466699
96,41.854830088217699
2,9, 1, 9, 0,15, 0.00,60.00,Monday
7,30.375
8,33.14351741319522
9,33.136473900943347
96,39.91860729651533
2,9, 1, 9, 0,16, 0.00,60.00,Monday
7,30.0
8,32.1666728202983
9,32.445764393812549
96,41.50065129562804
2,9, 1, 9, 0,17, 0.00,60.00,Monday
7,30.0
8,31.239268379776737
9,31.505620724627787
96,43.76611801201083
2,9, 1, 9, 0,18, 0.00,60.00,Monday
7,29.375
8,30.062029297203698
9,30.370735356730806
96,46.6905512216174
2,9, 1, 9, 0,19, 0.00,60.00,Monday
7,27.562500000000005
8,28.566529544203318
9,28.868987677372119
96,50.88341784469003
2,9, 1, 9, 0,20, 0.00,60.00,Monday
7,26.2625
8,27.04417847599327
9,27.31684426670589
96,55.67213475012225
2,9, 1, 9, 0,21, 0.00,60.00,Monday
7,22.875
8,25.698119399153563
9,25.94815814505636
96,60.28056011468518
2,9, 1, 9, 0,22, 0.00,60.00,Monday
7,21.375
8,24.36694594982946
9,24.59642416181355
96,65.29757106589311
2,9, 1, 9, 0,23, 0.00,60.00,Monday
7,21.225
8,23.30684306905605
9,23.478520107455887
96,69.81851984692654
2,9, 1, 9, 0,24, 0.00,60.00,Monday
7,21.625
8,22.61582149745146
9,22.751025483663566
96,72.96204661241375
2,10, 1,10, 0, 1, 0.00,60.00,Tuesday
7,22.0
8,22.14899157471367
9,22.26529868534996
96,75.15425004481603
2,10, 1,10, 0, 2, 0.00,60.00,Tuesday
7,21.375
8,21.661321318830497
9,21.770978563479799
96,77.44263980046586
2,10, 1,10, 0, 3, 0.00,60.00,Tuesday
7,21.0
8,20.969413556681564
9,21.094702699340944
96,80.71044402406415
2,10, 1,10, 0, 4, 0.00,60.00,Tuesday
7,21.0
8,20.394325377887037
9,20.49521454166741
96,83.74182781767013
2,10, 1,10, 0, 5, 0.00,60.00,Tuesday
7,21.0
8,19.998046544294483
9,20.077525538135899
96,85.9300683611356
2,10, 1,10, 0, 6, 0.00,60.00,Tuesday
7,21.0
8,19.698012368175524
9,19.765230087782315
96,87.60888007151434
2,10, 1,10, 0, 7, 0.00,60.00,Tuesday
7,21.0
8,19.55007029397313
9,19.582909250338454
96,88.60544559037933
2,10, 1,10, 0, 8, 0.00,60.00,Tuesday
7,21.0
8,19.677265907923077
9,19.65967099875967
96,88.18461991655497
2,10, 1,10, 0, 9, 0.00,60.00,Tuesday
7,21.625
8,20.093649891808718
9,20.043676534730403
96,86.12893998331578
2,10, 1,10, 0,10, 0.00,60.00,Tuesday
7,22.750000000000005
8,20.80600626699132
9,20.72670338684724
96,82.6057765597328
2,10, 1,10, 0,11, 0.00,60.00,Tuesday
7,24.325
8,21.786588485019487
9,21.695753995491648
96,77.87996006760995
2,10, 1,10, 0,12, 0.00,60.00,Tuesday
7,26.25
8,22.953326452886548
9,22.846686381492704
96,72.65826135642505
2,10, 1,10, 0,13, 0.00,60.00,Tuesday
7,27.437500000000005
8,24.17897961710557
9,24.105232375870594
96,67.37386319636203
2,10, 1,10, 0,14, 0.00,60.00,Tuesday
7,28.5125
8,25.45383196051264
9,25.423270736025694
96,62.29155978592924
2,10, 1,10, 0,15, 0.00,60.00,Tuesday
7,29.0
8,26.716807093549247
9,26.705814778367228
96,57.74760932346621
2,10, 1,10, 0,16, 0.00,60.00,Tuesday
7,28.6875
8,27.627132682131987
9,27.671080576102065
96,54.55654494657159
2,10, 1,10, 0,17, 0.00,60.00,Tuesday
7,28.8125
8,28.03545609051477
9,28.108241801109036
96,53.18155502016683
2,10, 1,10, 0,18, 0.00,60.00,Tuesday
7,29.0
8,28.101285139201278
9,28.177848503640616
96,52.969415008389898
2,10, 1,10, 0,19, 0.00,60.00,Tuesday
7,28.812500000000005
8,27.867797553035684
9,28.02122612121238
96,53.452735067137947
2,10, 1,10, 0,20, 0.00,60.00,Tuesday
7,28.2625
8,27.24437969756498
9,27.454071060740675
96,55.247137694075018
2,10, 1,10, 0,21, 0.00,60.00,Tuesday
7,27.375
8,26.299269805272624
9,26.541274258313658
96,58.279057386417488
2,10, 1,10, 0,22, 0.00,60.00,Tuesday
7,26.0625
8,25.11218275208046
9,25.33775750184118
96,62.556712278338199
2,10, 1,10, 0,23, 0.00,60.00,Tuesday
7,25.1875
8,24.3114859409041
9,24.454026010968549
96,65.91961835228507
2,10, 1,10, 0,24, 0.00,60.00,Tuesday
7,25.0
8,23.793150872125876
9,23.847172714712355
96,68.35909149168369
2,11, 1,11, 0, 1, 0.00,60.00,Wednesday
7,25.0
8,23.33754852992131
9,23.341510200694125
96,70.4723349138373
2,11, 1,11, 0, 2, 0.00,60.00,Wednesday
7,24.375
8,22.904680524530347
9,22.91946393793431
96,72.28000027651498
2,11, 1,11, 0, 3, 0.00,60.00,Wednesday
7,24.0
8,22.48851886870622
9,22.526521410735538
96,74.01499134223382
2,11, 1,11, 0, 4, 0.00,60.00,Wednesday
7,23.375
8,22.061775671786209
9,22.13264365482373
96,75.79607158858907
2,11, 1,11, 0, 5, 0.00,60.00,Wednesday
7,23.0
8,21.659522746422465
9,21.749901065865239
96,77.57786610427974
2,11, 1,11, 0, 6, 0.00,60.00,Wednesday
7,23.0
8,21.375558617797716
9,21.460551955139729
96,78.96240250878279
2,11, 1,11, 0, 7, 0.00,60.00,Wednesday
7,22.812500000000005
8,21.449973785450369
9,21.525866339053878
96,78.64315281910166
2,11, 1,11, 0, 8, 0.00,60.00,Wednesday
7,22.8875
8,22.033483731377677
9,22.110343757095884
96,75.89596738765927
2,11, 1,11, 0, 9, 0.00,60.00,Wednesday
7,23.625
8,23.157039835482487
9,23.251199270174497
96,70.85158982208162
2,11, 1,11, 0,10, 0.00,60.00,Wednesday
7,24.625
8,24.730186491116059
9,24.815404353492569
96,64.5238975750695
2,11, 1,11, 0,11, 0.00,60.00,Wednesday
7,26.25
8,26.532171867584724
9,26.547136963787044
96,58.25786571494062
2,11, 1,11, 0,12, 0.00,60.00,Wednesday
7,27.0
8,28.357549950936478
9,28.303296163422876
96,52.57639978198412
2,11, 1,11, 0,13, 0.00,60.00,Wednesday
7,27.0
8,30.00219362716455
9,29.902208640875885
96,47.93089695234886
2,11, 1,11, 0,14, 0.00,60.00,Wednesday
7,27.625
8,31.377029485753135
9,31.26607783686049
96,44.337173608086299
2,11, 1,11, 0,15, 0.00,60.00,Wednesday
7,26.125
8,31.19953197208106
9,31.36088232576781
96,44.075411904196709
2,11, 1,11, 0,16, 0.00,60.00,Wednesday
7,24.375
8,29.73647681900202
9,30.058290961850255
96,47.46427337679619
2,11, 1,11, 0,17, 0.00,60.00,Wednesday
7,24.625
8,28.447136778475476
9,28.714298905991126
96,51.288194654929977
2,11, 1,11, 0,18, 0.00,60.00,Wednesday
7,25.0
8,27.43393934770641
9,27.644706512611028
96,54.58316344228736
2,11, 1,11, 0,19, 0.00,60.00,Wednesday
7,24.375
8,26.760429597302207
9,26.94917368788876
96,56.83822923139236
2,11, 1,11, 0,20, 0.00,60.00,Wednesday
7,22.75
8,26.036741971199825
9,26.236641820288648
96,59.247842201227168
2,11, 1,11, 0,21, 0.00,60.00,Wednesday
7,22.0
8,25.06224798772491
9,25.25935398532465
96,62.77361175224266
2,11, 1,11, 0,22, 0.00,60.00,Wednesday
7,21.812500000000005
8,23.852667963692057
9,24.09751153101847
96,67.28811214077752
2,11, 1,11, 0,23, 0.00,60.00,Wednesday
7,21.8875
8,22.81049769895858
9,22.98730198347588
96,71.93792299289047
2,11, 1,11, 0,24, 0.00,60.00,Wednesday
7,22.0
8,21.988904340501738
9,22.135696299916846
96,75.75446123592633
2,12, 1,12, 0, 1, 0.00,60.00,Thursday
7,22.0
8,21.347738206430337
9,21.472372832698459
96,78.88451274556708
2,12, 1,12, 0, 2, 0.00,60.00,Thursday
7,22.0
8,20.840396188559386
9,20.946721276956909
96,81.4690600173858
2,12, 1,12, 0, 3, 0.00,60.00,Thursday
7,22.0
8,20.44501188773033
9,20.530908901031098
96,83.58130921405415
2,12, 1,12, 0, 4, 0.00,60.00,Thursday
7,22.0
8,20.157287786874514
9,20.216462500380155
96,85.21962599691507
2,12, 1,12, 0, 5, 0.00,60.00,Thursday
7,21.375
8,19.934315657685866
9,19.967460481322989