Program Version,EnergyPlus, Version 8.9.0-40101eaafd, YMD=2025.09.01 21:41
1,5,Environment Title[],Latitude[deg],Longitude[deg],Time Zone[],Elevation[m]
2,8,Day of Simulation[],Month[],Day of Month[],DST Indicator[1=yes 0=no],Hour[],StartMinute[],EndMinute[],DayType
3,5,Cumulative Day of Simulation[],Month[],Day of Month[],DST Indicator[1=yes 0=no],DayType  ! When Daily Report Variables Requested
4,2,Cumulative Days of Simulation[],Month[]  ! When Monthly Report Variables Requested
5,1,Cumulative Days of Simulation[] ! When Run Period Report Variables Requested
6,1,Calendar Year of Simulation[] ! When Annual Report Variables Requested
7,1,Environment,Site Outdoor Air Drybulb Temperature [C] !Hourly
8,1,ZONE DEFAULT,Zone Mean Radiant Temperature [C] !Hourly
9,1,ZONE DEFAULT,Zone Mean Air Temperature [C] !Hourly
96,1,ZONE DEFAULT,Zone Air Relative Humidity [%] !Hourly
End of Data Dictionary
1,TROPOS3D MODEL, -12.27, -38.97,  -3.00, 231.00
2,1, 1, 1, 0, 1, 0.00,60.00,Sunday
7,23.549999999999998
8,25.242083262863333
9,25.308779344903237
96,75.64283233307366
2,1, 1, 1, 0, 2, 0.00,60.00,Sunday
7,23.275
8,24.385383128482837
9,24.454360852171779
96,79.52591352649685
2,1, 1, 1, 0, 3, 0.00,60.00,Sunday
7,23.075
8,23.64321296202864
9,23.71645493919992
96,83.05444302629238
2,1, 1, 1, 0, 4, 0.00,60.00,Sunday
7,23.0
8,23.00288734571987
9,23.080851376213617
96,86.27205261164008
2,1, 1, 1, 0, 5, 0.00,60.00,Sunday
7,22.812500000000005
8,22.447698760162884
9,22.532691262414287
96,89.19391171715394
2,1, 1, 1, 0, 6, 0.00,60.00,Sunday
7,22.637500000000004
8,21.96716100203129
9,22.058764028419895
96,91.83312100131305
2,1, 1, 1, 0, 7, 0.00,60.00,Sunday
7,22.9125
8,21.64753541104511
9,21.71991208921455
96,93.8182889879661
2,1, 1, 1, 0, 8, 0.00,60.00,Sunday
7,24.35
8,21.864171287828794
9,21.871620153309619
96,93.017920227965
2,1, 1, 1, 0, 9, 0.00,60.00,Sunday
7,25.975
8,22.929793751949704
9,22.827752741885328
96,87.83068094323522
2,1, 1, 1, 0,10, 0.00,60.00,Sunday
7,27.8125
8,24.871896071816445
9,24.691183390197638
96,78.56709824427344
2,1, 1, 1, 0,11, 0.00,60.00,Sunday
7,29.85
8,27.230399008235414
9,26.980855883549674
96,68.60672358519583
2,1, 1, 1, 0,12, 0.00,60.00,Sunday
7,31.974999999999999
8,29.56934733547798
9,29.223458235997926
96,60.170796940637718
2,1, 1, 1, 0,13, 0.00,60.00,Sunday
7,32.4875
8,31.9976115648837
9,31.530414530131158
96,52.67796823731125
2,1, 1, 1, 0,14, 0.00,60.00,Sunday
7,33.3625
8,34.36439272750964
9,33.91114612045479
96,46.01784049520819
2,1, 1, 1, 0,15, 0.00,60.00,Sunday
7,34.625
8,36.32510582988381
9,36.026150181192139
96,40.880047807042618
2,1, 1, 1, 0,16, 0.00,60.00,Sunday
7,34.4375
8,37.272402558584307
9,37.187314899747779
96,38.3119618353643
2,1, 1, 1, 0,17, 0.00,60.00,Sunday
7,32.725
8,36.928114390682299
9,36.97343408720802
96,38.74766431681101
2,1, 1, 1, 0,18, 0.00,60.00,Sunday
7,30.7125
8,35.594213551823639
9,35.693621535055189
96,41.58530962683049
2,1, 1, 1, 0,19, 0.00,60.00,Sunday
7,28.8125
8,33.78043597166849
9,33.882360804828127
96,46.01144311991549
2,1, 1, 1, 0,20, 0.00,60.00,Sunday
7,27.225
8,31.905447447177008
9,32.00650264701575
96,51.17659572895997
2,1, 1, 1, 0,21, 0.00,60.00,Sunday
7,26.075
8,30.184787737238044
9,30.278083811116745
96,56.53046385641547
2,1, 1, 1, 0,22, 0.00,60.00,Sunday
7,25.199999999999997
8,28.673455929894904
9,28.760914073594635
96,61.75582099680899
2,1, 1, 1, 0,23, 0.00,60.00,Sunday
7,24.5875
8,27.362476831547345
9,27.44494586100961
96,66.71521927612179
2,1, 1, 1, 0,24, 0.00,60.00,Sunday
7,24.025
8,26.23045753387688
9,26.295807949449494
96,71.37691951460588
2,2, 1, 2, 0, 1, 0.00,60.00,Monday
7,23.549999999999998
8,25.24208326286595
9,25.308779344905824
96,75.64283233307379
2,2, 1, 2, 0, 2, 0.00,60.00,Monday
7,23.15
8,24.380660569463634
9,24.450038720252907
96,79.58724726853717
2,2, 1, 2, 0, 3, 0.00,60.00,Monday
7,22.562499999999998
8,23.617026580374526
9,23.691081760341505
96,83.28673865052443
2,2, 1, 2, 0, 4, 0.00,60.00,Monday
7,22.362499999999998
8,22.94121211819007
9,23.01985517741547
96,86.70691244738899
2,2, 1, 2, 0, 5, 0.00,60.00,Monday
7,22.4
8,22.35513902386492
9,22.440836648243157
96,89.77423178248664
2,2, 1, 2, 0, 6, 0.00,60.00,Monday
7,22.275
8,21.848296383119658
9,21.940581680283466
96,92.56366974127636
2,2, 1, 2, 0, 7, 0.00,60.00,Monday
7,22.012499999999997
8,21.465133491840946
9,21.548728541452147
96,94.86174965069125
2,2, 1, 2, 0, 8, 0.00,60.00,Monday
7,23.525
8,21.542455730359003
9,21.559131114421854
96,94.85753788913851
2,2, 1, 2, 0, 9, 0.00,60.00,Monday
7,25.562500000000005
8,22.404557712281986
9,22.326764706402878
96,90.55943532483534
2,2, 1, 2, 0,10, 0.00,60.00,Monday
7,26.949999999999997
8,23.936826131023694
9,23.791776981450565
96,82.91315926289602
2,2, 1, 2, 0,11, 0.00,60.00,Monday
7,27.5875
8,25.402339605761964
9,25.273223024122634
96,75.8685110497837
2,2, 1, 2, 0,12, 0.00,60.00,Monday
7,28.0125
8,25.64630609546886
9,25.593731616834284
96,74.42749305537567
2,2, 1, 2, 0,13, 0.00,60.00,Monday
7,28.3875
8,26.03612201874572
9,26.039947469939589
96,72.45494642927241
2,2, 1, 2, 0,14, 0.00,60.00,Monday
7,27.062500000000005
8,27.33314274995501
9,27.277321280299895
96,67.33922709578036
2,2, 1, 2, 0,15, 0.00,60.00,Monday
7,25.1375
8,28.019889646179469
9,28.023754989274605
96,64.41066073720515
2,2, 1, 2, 0,16, 0.00,60.00,Monday
7,26.812500000000005
8,28.24725257167538
9,28.167446547087036
96,63.810049792319059
2,2, 1, 2, 0,17, 0.00,60.00,Monday
7,28.825
8,28.43723434015361
9,28.32126226308782
96,63.2109285912289
2,2, 1, 2, 0,18, 0.00,60.00,Monday
7,28.699999999999997
8,28.26524259869714
9,28.20596352062943
96,63.63884892900417
2,2, 1, 2, 0,19, 0.00,60.00,Monday
7,27.5875
8,27.66716598953223
9,27.670990061478375
96,65.68632738729228
2,2, 1, 2, 0,20, 0.00,60.00,Monday
7,26.1625
8,26.868536078947679
9,26.90369476319233
96,68.75491283546373
2,2, 1, 2, 0,21, 0.00,60.00,Monday
7,25.1
8,26.01802210730594
9,26.071944209482525
96,72.26133063083702
2,2, 1, 2, 0,22, 0.00,60.00,Monday
7,24.3
8,25.188863413831258
9,25.25422472076013
96,75.90101462289677
2,2, 1, 2, 0,23, 0.00,60.00,Monday
7,23.562499999999998
8,24.402973843493699
9,24.47709720562461
96,79.53623215874983
2,2, 1, 2, 0,24, 0.00,60.00,Monday
7,22.925
8,23.669242062475428
9,23.74967085751078
96,83.08342493610368
2,3, 1, 3, 0, 1, 0.00,60.00,Tuesday
7,22.575
8,22.99704637221974
9,23.082797550646548
96,86.44860205836038
2,3, 1, 3, 0, 2, 0.00,60.00,Tuesday
7,22.125
8,22.388242017029844
9,22.479093034324785
96,89.62992812259945
2,3, 1, 3, 0, 3, 0.00,60.00,Tuesday
7,21.9
8,21.84329198805289
9,21.940596967052089
96,92.58865721311918
2,3, 1, 3, 0, 4, 0.00,60.00,Tuesday
7,21.65
8,21.349760184185905
9,21.458264254793208
96,95.34226010243788
2,3, 1, 3, 0, 5, 0.00,60.00,Tuesday
7,21.5625
8,20.91765872530038
9,21.034007372194766
96,97.87646528591339
2,3, 1, 3, 0, 6, 0.00,60.00,Tuesday
7,21.6625
8,20.522613594446264
9,20.661020347213389
96,99.796060866457
2,3, 1, 3, 0, 7, 0.00,60.00,Tuesday
7,22.0125
8,20.273755036987688
9,20.379324102335308
96,100.0
2,3, 1, 3, 0, 8, 0.00,60.00,Tuesday
7,23.2
8,20.425628887200696
9,20.4716958501907
96,99.11573791221795
2,3, 1, 3, 0, 9, 0.00,60.00,Tuesday
7,24.675
8,21.12303305467359
9,21.12015430636363
96,95.29274365698473
2,3, 1, 3, 0,10, 0.00,60.00,Tuesday
7,27.199999999999997
8,22.240687746047308
9,22.07169740793454
96,89.92191607391773
2,3, 1, 3, 0,11, 0.00,60.00,Tuesday
7,27.4
8,24.07122580700119
9,23.822880798390359
96,80.90717599102419
2,3, 1, 3, 0,12, 0.00,60.00,Tuesday
7,28.6125
8,26.399825501113143
9,26.003863522348703
96,71.02493842593296
2,3, 1, 3, 0,13, 0.00,60.00,Tuesday
7,30.075
8,28.76118861214989
9,28.28625561291952
96,62.064202774721078
2,3, 1, 3, 0,14, 0.00,60.00,Tuesday
7,31.425000000000006
8,31.021335286834714
9,30.55392323260508
96,54.413482378199528
2,3, 1, 3, 0,15, 0.00,60.00,Tuesday
7,32.975
8,33.354859581862459
9,32.99685505855295
96,47.34300343313529
2,3, 1, 3, 0,16, 0.00,60.00,Tuesday
7,31.499999999999998
8,34.60276396769291
9,34.507662119925118
96,43.46274244065607
2,3, 1, 3, 0,17, 0.00,60.00,Tuesday
7,30.6125
8,34.354590787225877
9,34.400821622519789
96,43.71446045469536
2,3, 1, 3, 0,18, 0.00,60.00,Tuesday
7,30.050000000000006
8,33.28432549633149
9,33.36385488223175
96,46.34075136049425
2,3, 1, 3, 0,19, 0.00,60.00,Tuesday
7,28.725
8,31.871451827175635
9,31.95183738024863
96,50.20457771816916
2,3, 1, 3, 0,20, 0.00,60.00,Tuesday
7,27.45
8,30.397317787798519
9,30.47959246174943
96,54.6280375235684
2,3, 1, 3, 0,21, 0.00,60.00,Tuesday
7,26.249999999999998
8,29.017371206926457
9,29.097716417933204
96,59.18293988970225
2,3, 1, 3, 0,22, 0.00,60.00,Tuesday
7,25.237499999999998
8,27.762516789910003
9,27.866345163097063
96,63.59902239494677
2,3, 1, 3, 0,23, 0.00,60.00,Tuesday
7,24.4625
8,26.62304161143965
9,26.705334240069136
96,68.1097525892669
2,3, 1, 3, 0,24, 0.00,60.00,Tuesday
7,23.95
8,25.614717879978543
9,25.68354575303261
96,72.37184821599242
2,4, 1, 4, 0, 1, 0.00,60.00,Wednesday
7,23.6125
8,24.73622154988328
9,24.808471067204559
96,76.22197347243753
2,4, 1, 4, 0, 2, 0.00,60.00,Wednesday
7,23.4375
8,23.971248598451156
9,24.047792921375998
96,79.73157167277305
2,4, 1, 4, 0, 3, 0.00,60.00,Wednesday
7,23.3375
8,23.2354507458159
9,23.32237625099462
96,83.26056932584342
2,4, 1, 4, 0, 4, 0.00,60.00,Wednesday
7,22.925
8,22.620292478931437
9,22.693005731439187
96,86.45269682674976
2,4, 1, 4, 0, 5, 0.00,60.00,Wednesday
7,22.1375
8,22.093336374392444
9,22.176408238699677
96,89.18802575734384
2,4, 1, 4, 0, 6, 0.00,60.00,Wednesday
7,21.425
8,21.588697881754244
9,21.681355778196317
96,91.94326620194718
2,4, 1, 4, 0, 7, 0.00,60.00,Wednesday
7,22.0125
8,21.258920324216694
9,21.324956612047129
96,94.01874317688938
2,4, 1, 4, 0, 8, 0.00,60.00,Wednesday
7,24.4375
8,21.683544445840135
9,21.669507905295274
96,92.12320084748403
2,4, 1, 4, 0, 9, 0.00,60.00,Wednesday
7,26.6625
8,23.081990825737738
9,22.951591504327039
96,85.27914096522865
2,4, 1, 4, 0,10, 0.00,60.00,Wednesday
7,28.2375
8,24.923574568512348
9,24.759861870994393
96,76.5093855110384
2,4, 1, 4, 0,11, 0.00,60.00,Wednesday
7,29.300000000000006
8,26.95609402695203
9,26.73463356708332
96,68.06105606003092
2,4, 1, 4, 0,12, 0.00,60.00,Wednesday
7,30.225
8,29.074387526406857
9,28.790004966422086
96,60.35014406706617
2,4, 1, 4, 0,13, 0.00,60.00,Wednesday
7,31.912500000000006
8,31.084596092375386
9,30.768628102394147
96,53.81552776731735
2,4, 1, 4, 0,14, 0.00,60.00,Wednesday
7,32.2625
8,33.02487371601691
9,32.685179552434679
96,48.236408615962719
2,4, 1, 4, 0,15, 0.00,60.00,Wednesday
7,30.4375
8,34.54375789563109
9,34.31214329416434
96,44.00131918392883
2,4, 1, 4, 0,16, 0.00,60.00,Wednesday
7,30.0625
8,35.209242716756758
9,35.14310173442373
96,41.99126479245326
2,4, 1, 4, 0,17, 0.00,60.00,Wednesday
7,30.025
8,34.848797529378419
9,34.89504342872851
96,42.557996603580637
2,4, 1, 4, 0,18, 0.00,60.00,Wednesday
7,29.987500000000006
8,33.68516616295822
9,33.776311472196727
96,45.3006608930908
2,4, 1, 4, 0,19, 0.00,60.00,Wednesday
7,28.225
8,32.172330873006909
9,32.25596096449318
96,49.37431589784157
2,4, 1, 4, 0,20, 0.00,60.00,Wednesday
7,26.4125
8,30.577718888468774
9,30.664847601936985
96,54.07820733671578
2,4, 1, 4, 0,21, 0.00,60.00,Wednesday
7,25.874999999999998
8,29.100213525336117
9,29.18234144737693
96,58.909888908898867
2,4, 1, 4, 0,22, 0.00,60.00,Wednesday
7,25.237499999999998
8,27.806317584370946
9,27.886313568921535
96,63.55677674460014
2,4, 1, 4, 0,23, 0.00,60.00,Wednesday
7,24.525
8,26.663715844211496
9,26.727780992743584
96,68.04793915900149
2,4, 1, 4, 0,24, 0.00,60.00,Wednesday
7,24.049999999999998
8,25.65513887363714
9,25.720857527223428
96,72.20629457056836
2,5, 1, 5, 0, 1, 0.00,60.00,Thursday
7,23.65
8,24.77013968729215
9,24.838516693255657
96,76.06732943075879
2,5, 1, 5, 0, 2, 0.00,60.00,Thursday
7,23.374999999999998
8,24.0001081546091
9,24.071098420402718
96,79.60897621874899
2,5, 1, 5, 0, 3, 0.00,60.00,Thursday
7,23.049999999999998
8,23.328980837003436
9,23.405216810822759
96,82.82424607847629
2,5, 1, 5, 0, 4, 0.00,60.00,Thursday
7,22.7125
8,22.733437901125705
9,22.816553890301824
96,85.80340382717178
2,5, 1, 5, 0, 5, 0.00,60.00,Thursday
7,22.1
8,22.178559885097188
9,22.271995574489535
96,88.70239084511189
2,5, 1, 5, 0, 6, 0.00,60.00,Thursday
7,21.675000000000006
8,21.666274791414965
9,21.765490136904338
96,91.50039247392232
2,5, 1, 5, 0, 7, 0.00,60.00,Thursday
7,22.225
8,21.349795397329129
9,21.41886516772152
96,93.49801678499266
2,5, 1, 5, 0, 8, 0.00,60.00,Thursday
7,24.725
8,21.827253526209345
9,21.78822003954229
96,91.45230598378376
2,5, 1, 5, 0, 9, 0.00,60.00,Thursday
7,26.625
8,23.31734107887909
9,23.208554772818418
96,83.91454378715769
2,5, 1, 5, 0,10, 0.00,60.00,Thursday
7,28.437499999999998
8,25.326064087563304
9,25.15758513336666
96,74.66557410486621
2,5, 1, 5, 0,11, 0.00,60.00,Thursday
7,30.612499999999998
8,27.583326526507947
9,27.34800336904789
96,65.59551749631577
2,5, 1, 5, 0,12, 0.00,60.00,Thursday
7,31.775
8,29.99672224601037
9,29.68452420523449
96,57.24316242731881
2,5, 1, 5, 0,13, 0.00,60.00,Thursday
7,32.75
8,32.28936270152173
9,31.94503532634539
96,50.26423942269943
2,5, 1, 5, 0,14, 0.00,60.00,Thursday
7,33.575
8,34.34729541016543
9,34.0198374150802
96,44.68092087846988
2,5, 1, 5, 0,15, 0.00,60.00,Thursday
7,33.175
8,35.69311941332036
9,35.464031628696869
96,41.1872331804838
2,5, 1, 5, 0,16, 0.00,60.00,Thursday
7,29.049999999999998
8,35.88294452161679
9,35.8068895126482
96,40.37909112725261
2,5, 1, 5, 0,17, 0.00,60.00,Thursday
7,23.9875
8,34.57390416104148
9,34.6449706617931
96,43.14112784808252
2,5, 1, 5, 0,18, 0.00,60.00,Thursday
7,22.6125
8,32.23659536623648
9,32.41078647682332
96,48.89148124660096
2,5, 1, 5, 0,19, 0.00,60.00,Thursday
7,22.862499999999998
8,29.982223515872695
9,30.154779923255917
96,55.571195119337847
2,5, 1, 5, 0,20, 0.00,60.00,Thursday
7,22.7125
8,28.18082491525055
9,28.279707199456593
96,61.95932067927867
2,5, 1, 5, 0,21, 0.00,60.00,Thursday
7,22.225
8,26.678887076462787
9,26.764598001474164
96,67.71125802789973
2,5, 1, 5, 0,22, 0.00,60.00,Thursday
7,21.9375
8,25.405927036126156
9,25.478539834466049
96,73.07330375924896
2,5, 1, 5, 0,23, 0.00,60.00,Thursday
7,21.65
8,24.3451993929151
9,24.397687883463499
96,77.9531382207246
2,5, 1, 5, 0,24, 0.00,60.00,Thursday
7,21.8125
8,23.455749652625607
9,23.510070568637596
96,82.19699426413122
2,6, 1, 6, 0, 1, 0.00,60.00,Friday
7,21.812500000000005
8,22.706055407782605
9,22.763046939459185
96,85.97670019253715
2,6, 1, 6, 0, 2, 0.00,60.00,Friday
7,21.637500000000004
8,22.078655160785237
9,22.136612240345085
96,89.28869988790632
2,6, 1, 6, 0, 3, 0.00,60.00,Friday
7,21.225
8,21.529343689928397
9,21.597303716503597
96,92.25155601623639
2,6, 1, 6, 0, 4, 0.00,60.00,Friday
7,21.1875
8,21.036937194217125
9,21.114523027034445
96,95.01415465601483
2,6, 1, 6, 0, 5, 0.00,60.00,Friday
7,21.362499999999998
8,20.612311625058095
9,20.703456762542659
96,97.45880551880822
2,6, 1, 6, 0, 6, 0.00,60.00,Friday
7,21.4625
8,20.26411942693999
9,20.368730318719938
96,99.47639030108658
2,6, 1, 6, 0, 7, 0.00,60.00,Friday
7,21.687499999999998
8,20.10900529016837
9,20.184969007798956
96,99.90570958208656
2,6, 1, 6, 0, 8, 0.00,60.00,Friday
7,23.862500000000006
8,20.664952615427205
9,20.6412705731905
96,97.04456303295059
2,6, 1, 6, 0, 9, 0.00,60.00,Friday
7,25.5375
8,22.16710068881095
9,22.08398196102682
96,88.88739888536867
2,6, 1, 6, 0,10, 0.00,60.00,Friday
7,26.8625
8,24.262814576659538
9,24.08624837837866
96,78.76683708820602
2,6, 1, 6, 0,11, 0.00,60.00,Friday
7,29.125
8,26.63716792955666
9,26.347043345965284
96,68.83537030629792
2,6, 1, 6, 0,12, 0.00,60.00,Friday
7,29.6625
8,29.08865633915831
9,28.67382266749906
96,60.05295459700507
2,6, 1, 6, 0,13, 0.00,60.00,Friday
7,30.2125
8,31.133030320789915
9,30.792009288367429
96,53.138081499711578
2,6, 1, 6, 0,14, 0.00,60.00,Friday
7,31.637500000000004
8,32.76915365117691
9,32.470304531060907
96,48.2639125641236
2,6, 1, 6, 0,15, 0.00,60.00,Friday
7,32.45
8,34.19073897974417
9,33.91971704323964
96,44.44690805424915
2,6, 1, 6, 0,16, 0.00,60.00,Friday
7,31.0375
8,35.21516805041726
9,35.0692065315541
96,41.66556705305781
2,6, 1, 6, 0,17, 0.00,60.00,Friday
7,30.6
8,35.04692453102718
9,35.069778704168637
96,41.645551612307347
2,6, 1, 6, 0,18, 0.00,60.00,Friday
7,29.9625
8,33.8758555373204
9,33.96752254388995
96,44.286618623424377
2,6, 1, 6, 0,19, 0.00,60.00,Friday
7,28.275
8,32.29428260706011
9,32.38892549072664
96,48.41144983582093
2,6, 1, 6, 0,20, 0.00,60.00,Friday
7,26.5375
8,30.666136023213026
9,30.761912329565165
96,53.12596692468602
2,6, 1, 6, 0,21, 0.00,60.00,Friday
7,25.0875
8,29.121212878041484
9,29.216931846274457
96,58.088442548174487
2,6, 1, 6, 0,22, 0.00,60.00,Friday
7,24.0375
8,27.703734959549558
9,27.79824622167923
96,63.12216614402323
2,6, 1, 6, 0,23, 0.00,60.00,Friday
7,23.45
8,26.428644890272929
9,26.52109126018064
96,68.0811181546572
2,6, 1, 6, 0,24, 0.00,60.00,Friday
7,22.925
8,25.321049985428187
9,25.393769938271825
96,72.81619699910279
2,7, 1, 7, 0, 1, 0.00,60.00,Saturday
7,22.3875
8,24.369097175831983
9,24.44042458205562
96,77.04406972448281
2,7, 1, 7, 0, 2, 0.00,60.00,Saturday
7,22.2
8,23.546623397988705
9,23.620423171041869
96,80.87747854937159
2,7, 1, 7, 0, 3, 0.00,60.00,Saturday
7,22.012499999999997
8,22.837647717933156
9,22.915688014612717
96,84.36634005910514
2,7, 1, 7, 0, 4, 0.00,60.00,Saturday
7,22.15
8,22.229758917363524
9,22.31266879834562
96,87.49826980791711
2,7, 1, 7, 0, 5, 0.00,60.00,Saturday
7,21.9875
8,21.707614334866525
9,21.798208910781456
96,90.28195048811125
2,7, 1, 7, 0, 6, 0.00,60.00,Saturday
7,21.7375
8,21.252304764142786
9,21.3509145075005
96,92.815905185882
2,7, 1, 7, 0, 7, 0.00,60.00,Saturday
7,22.075
8,20.973373122000348
9,21.048168422579523
96,94.61429571404328
2,7, 1, 7, 0, 8, 0.00,60.00,Saturday
7,23.737500000000006
8,21.378873088021189
9,21.38029726300244
96,92.76856849026456
2,7, 1, 7, 0, 9, 0.00,60.00,Saturday
7,25.9125
8,22.628798802201087
9,22.511384685600626
96,86.64377439975445
2,7, 1, 7, 0,10, 0.00,60.00,Saturday
7,27.825
8,24.642946001133283
9,24.460650774880628
96,77.07964937695208
2,7, 1, 7, 0,11, 0.00,60.00,Saturday
7,28.687499999999998
8,27.0001308510862
9,26.747088137196536
96,67.2993941743443
2,7, 1, 7, 0,12, 0.00,60.00,Saturday
7,29.487499999999998
8,29.26862861768158
9,28.9646007995267
96,59.09756900901694
2,7, 1, 7, 0,13, 0.00,60.00,Saturday
7,30.4625
8,31.51642180741367
9,31.19723621441273
96,51.94996549796391
2,7, 1, 7, 0,14, 0.00,60.00,Saturday
7,31.737499999999998
8,33.432393406377048
9,33.12451343140961
96,46.54029930477573
2,7, 1, 7, 0,15, 0.00,60.00,Saturday
7,33.3
8,35.11840635279702
9,34.87466645876654
96,42.17267003678634
2,7, 1, 7, 0,16, 0.00,60.00,Saturday
7,34.0875
8,36.29189308125144
9,36.16150179199386
96,39.244146017674079
2,7, 1, 7, 0,17, 0.00,60.00,Saturday
7,32.3875
8,36.31664529377894
9,36.34992604020108
96,38.82236856289886
2,7, 1, 7, 0,18, 0.00,60.00,Saturday
7,30.8
8,35.14697677205453
9,35.25148163705276
96,41.26050597079426
2,7, 1, 7, 0,19, 0.00,60.00,Saturday
7,29.625
8,33.46158323080267
9,33.56202565748988
96,45.343027754397088
2,7, 1, 7, 0,20, 0.00,60.00,Saturday
7,28.1625
8,31.770369922514776
9,31.864801892245887
96,49.926511703016618
2,7, 1, 7, 0,21, 0.00,60.00,Saturday
7,26.975
8,30.193025992616968
9,30.285845931004759
96,54.66754458629032
2,7, 1, 7, 0,22, 0.00,60.00,Saturday
7,25.975
8,28.764138427902674
9,28.85376181100241
96,59.41345745002321
2,7, 1, 7, 0,23, 0.00,60.00,Saturday
7,25.1625
8,27.505934996159437
9,27.588480618016093
96,63.98578199933915
2,7, 1, 7, 0,24, 0.00,60.00,Saturday
7,24.525
8,26.405894178497485
9,26.47467392545996
96,68.32003594804815
2,8, 1, 8, 0, 1, 0.00,60.00,Sunday
7,23.862500000000006
8,25.433684445020114
9,25.505450001818564
96,72.33901709667615
2,8, 1, 8, 0, 2, 0.00,60.00,Sunday
7,23.4125
8,24.575865627956337
9,24.65057974828063
96,76.0935262746889
2,8, 1, 8, 0, 3, 0.00,60.00,Sunday
7,23.487500000000006
8,23.84013177222481
9,23.917007005336907
96,79.48753473758348
2,8, 1, 8, 0, 4, 0.00,60.00,Sunday
7,23.5375
8,23.220017920530716
9,23.301528005058164
96,82.48485281855756
2,8, 1, 8, 0, 5, 0.00,60.00,Sunday
7,23.4375
8,22.689354314256265
9,22.777059494319233
96,85.16298219303775
2,8, 1, 8, 0, 6, 0.00,60.00,Sunday
7,23.4625
8,22.239542150744009
9,22.332512704420098
96,87.53043846400196
2,8, 1, 8, 0, 7, 0.00,60.00,Sunday
7,23.875
8,21.96250440149579
9,22.03295938156301
96,89.17411887559629
2,8, 1, 8, 0, 8, 0.00,60.00,Sunday
7,24.6
8,22.184440405887238
9,22.199177505001925
96,88.30008282318417
2,8, 1, 8, 0, 9, 0.00,60.00,Sunday
7,26.0875
8,23.196651330522223
9,23.104452405812368
96,83.62036040173483
2,8, 1, 8, 0,10, 0.00,60.00,Sunday
7,27.425
8,24.8017264611235
9,24.649909406234636
96,76.25359430709308
2,8, 1, 8, 0,11, 0.00,60.00,Sunday
7,28.55
8,26.700165908419537
9,26.483922519151827
96,68.40235933732217
2,8, 1, 8, 0,12, 0.00,60.00,Sunday
7,30.437499999999998
8,28.72633530230493
9,28.431145832292886
96,61.00018109543042
2,8, 1, 8, 0,13, 0.00,60.00,Sunday
7,32.3625
8,30.92369149550395
9,30.568256974710559
96,53.88743921861672
2,8, 1, 8, 0,14, 0.00,60.00,Sunday
7,33.0625
8,32.96792049663263
9,32.61872773829021
96,47.91147066508171
2,8, 1, 8, 0,15, 0.00,60.00,Sunday
7,33.725
8,34.5451928119586
9,34.260615330960728
96,43.655138889991018
2,8, 1, 8, 0,16, 0.00,60.00,Sunday
7,33.6
8,35.581735296956129
9,35.40381220770534
96,40.93596168939571
2,8, 1, 8, 0,17, 0.00,60.00,Sunday
7,32.925
8,35.60076137992525
9,35.57016887639256
96,40.55521237736279
2,8, 1, 8, 0,18, 0.00,60.00,Sunday
7,31.5125
8,34.620438477666159
9,34.68062015751032
96,42.61978911488819
2,8, 1, 8, 0,19, 0.00,60.00,Sunday
7,29.8625
8,33.130620572000989
9,33.21310706425983
96,46.27883647437642
2,8, 1, 8, 0,20, 0.00,60.00,Sunday
7,28.3
8,31.548715325170887
9,31.639571260296358
96,50.620233532516689
2,8, 1, 8, 0,21, 0.00,60.00,Sunday
7,27.1375
8,30.052345063451285
9,30.144346696014439
96,55.17575238811443
2,8, 1, 8, 0,22, 0.00,60.00,Sunday
7,26.237499999999998
8,28.701421793265369
9,28.79189463703646
96,59.697448157090139
2,8, 1, 8, 0,23, 0.00,60.00,Sunday
7,25.4625
8,27.507492012525469
9,27.584286310876995
96,64.08204136894
2,8, 1, 8, 0,24, 0.00,60.00,Sunday
7,24.8875
8,26.456467535114006
9,26.53028022415323
96,68.16784581136816
2,9, 1, 9, 0, 1, 0.00,60.00,Monday
7,24.512499999999997
8,25.536129512358078
9,25.61203055531663
96,71.93803603222814
2,9, 1, 9, 0, 2, 0.00,60.00,Monday
7,24.025
8,24.723558296297648
9,24.80363070982855
96,75.45864159825323
2,9, 1, 9, 0, 3, 0.00,60.00,Monday
7,23.675000000000006
8,24.009594560231347
9,24.09297924072491
96,78.71040890374181
2,9, 1, 9, 0, 4, 0.00,60.00,Monday
7,23.5375
8,23.380934826864729
9,23.470485318290998
96,81.69065288392385
2,9, 1, 9, 0, 5, 0.00,60.00,Monday
7,23.374999999999998
8,22.825420455226174
9,22.92099416095374
96,84.4526271585475
2,9, 1, 9, 0, 6, 0.00,60.00,Monday
7,23.2375
8,22.340187304496568
9,22.441761380108447
96,86.9667015122045
2,9, 1, 9, 0, 7, 0.00,60.00,Monday
7,23.2625
8,21.999370409633565
9,22.081380159037967
96,88.93196166450656
2,9, 1, 9, 0, 8, 0.00,60.00,Monday
7,24.8
8,22.252440772190153
9,22.260633396836757
96,87.99350880471948
2,9, 1, 9, 0, 9, 0.00,60.00,Monday
7,26.262500000000004
8,23.41295738363977
9,23.304447182944889
96,82.64579478792527
2,9, 1, 9, 0,10, 0.00,60.00,Monday
7,27.975
8,25.178582716658739
9,25.009540114375264
96,74.63981251713058
2,9, 1, 9, 0,11, 0.00,60.00,Monday
7,29.3625
8,27.09458686853081
9,26.879144556909674
96,66.80501335471442
2,9, 1, 9, 0,12, 0.00,60.00,Monday
7,30.5125
8,29.007635641820714
9,28.717213865515999
96,59.96750597787489
2,9, 1, 9, 0,13, 0.00,60.00,Monday
7,31.0
8,31.177661727820035
9,30.806818450163335
96,53.144333530207109
2,9, 1, 9, 0,14, 0.00,60.00,Monday
7,31.875
8,33.251144311787587
9,32.922038313528307
96,47.1018308921868
2,9, 1, 9, 0,15, 0.00,60.00,Monday
7,31.3375
8,34.60737167488575
9,34.42300685580423
96,43.27261877853545
2,9, 1, 9, 0,16, 0.00,60.00,Monday
7,29.7625
8,34.82379805848068
9,34.80597157777043
96,42.34803886368267
2,9, 1, 9, 0,17, 0.00,60.00,Monday
7,26.950000000000004
8,34.004990347125147
9,34.05115752622668
96,44.15922097595703
2,9, 1, 9, 0,18, 0.00,60.00,Monday
7,26.9125
8,32.60463102561556
9,32.665755891985039
96,47.72715570351063
2,9, 1, 9, 0,19, 0.00,60.00,Monday
7,27.7
8,31.060590277346529
9,31.13523860628715
96,52.07072128628176
2,9, 1, 9, 0,20, 0.00,60.00,Monday
7,26.95
8,29.63403284213601
9,29.700968504310838
96,56.559278104343949
2,9, 1, 9, 0,21, 0.00,60.00,Monday
7,25.749999999999998
8,28.354753966208869
9,28.421457139262786
96,60.941612569438749
2,9, 1, 9, 0,22, 0.00,60.00,Monday
7,24.862500000000006
8,27.19850220783966
9,27.254975507812206
96,65.25217756541184
2,9, 1, 9, 0,23, 0.00,60.00,Monday
7,24.2875
8,26.156590779433576
9,26.21866051599398
96,69.35892899507333
2,9, 1, 9, 0,24, 0.00,60.00,Monday
7,24.1
8,25.234445914636014
9,25.301464280540914
96,73.23420963778156
2,10, 1,10, 0, 1, 0.00,60.00,Tuesday
7,23.9125
8,24.440785182707317
9,24.51086245437213
96,76.73940254557776
2,10, 1,10, 0, 2, 0.00,60.00,Tuesday
7,23.237499999999998
8,23.73420452453169
9,23.81254945083192
96,79.98858992109047
2,10, 1,10, 0, 3, 0.00,60.00,Tuesday
7,22.775
8,23.090145464216098
9,23.174685105721559
96,83.09878431725594
2,10, 1,10, 0, 4, 0.00,60.00,Tuesday
7,22.7
8,22.511587689713634
9,22.604180896560487
96,86.00496817500611
2,10, 1,10, 0, 5, 0.00,60.00,Tuesday
7,22.512499999999997
8,21.996053990522556
9,22.096576567628178
96,88.7036350435182
2,10, 1,10, 0, 6, 0.00,60.00,Tuesday
7,22.4
8,21.54446300495423
9,21.652825111022297
96,91.17127478618304
2,10, 1,10, 0, 7, 0.00,60.00,Tuesday
7,22.4625
8,21.233309588012653
9,21.324045894220409
96,93.06480365393756
2,10, 1,10, 0, 8, 0.00,60.00,Tuesday
7,24.375
8,21.614635411762614
9,21.628855107029709
96,91.4083170070444
2,10, 1,10, 0, 9, 0.00,60.00,Tuesday
7,25.999999999999998
8,23.00720940725694
9,22.88930681655885
96,84.74316567316416
2,10, 1,10, 0,10, 0.00,60.00,Tuesday
7,27.299999999999998
8,25.059970336446026
9,24.881299539843839
96,75.20775723676411
2,10, 1,10, 0,11, 0.00,60.00,Tuesday
7,29.025
8,27.349439135742569
9,27.11149161156836
96,65.90170118705473
2,10, 1,10, 0,12, 0.00,60.00,Tuesday
7,30.075
8,29.62458168088682
9,29.331861405154535
96,57.87938382324736
2,10, 1,10, 0,13, 0.00,60.00,Tuesday
7,30.8625
8,31.788315736809858
9,31.489311006825063
96,51.10980032017426
2,10, 1,10, 0,14, 0.00,60.00,Tuesday
7,31.7
8,33.569996590395508
9,33.286955461590178
96,46.131871741492897
2,10, 1,10, 0,15, 0.00,60.00,Tuesday
7,32.1875
8,34.76076934579987
9,34.55126697443579
96,42.94989984305257
2,10, 1,10, 0,16, 0.00,60.00,Tuesday
7,32.2375
8,35.28225820836849
9,35.14478891198988
96,41.53161526349814
2,10, 1,10, 0,17, 0.00,60.00,Tuesday
7,31.1375
8,34.98579099973034
9,34.959816614047657
96,41.95099094585113
2,10, 1,10, 0,18, 0.00,60.00,Tuesday
7,30.000000000000005
8,33.86763443575766
9,33.92837329425131
96,44.43380424504326
2,10, 1,10, 0,19, 0.00,60.00,Tuesday
7,28.6375
8,32.33669889604103
9,32.41329577377055
96,48.38969166887759
2,10, 1,10, 0,20, 0.00,60.00,Tuesday
7,27.562499999999998
8,30.772247999007108
9,30.85476094712787
96,52.894898761354429
2,10, 1,10, 0,21, 0.00,60.00,Tuesday
7,26.6125
8,29.3283147323148
9,29.410442132144327
96,57.5134673880169
2,10, 1,10, 0,22, 0.00,60.00,Tuesday
7,25.575
8,28.035584007508804
9,28.117666024946666
96,62.02647642321836
2,10, 1,10, 0,23, 0.00,60.00,Tuesday
7,24.8875
8,26.881652129409305
9,26.95000093723477
96,66.43189905390062
2,10, 1,10, 0,24, 0.00,60.00,Tuesday
7,24.199999999999997
8,25.850752176696806
9,25.920739342594655
96,70.58520262481884
2,11, 1,11, 0, 1, 0.00,60.00,Wednesday
7,23.525
8,24.938140732865358
9,25.009823154656539
96,74.48297363260422
2,11, 1,11, 0, 2, 0.00,60.00,Wednesday
7,23.1125
8,24.133689121833777
9,24.209666180584124
96,78.09942972762483
2,11, 1,11, 0, 3, 0.00,60.00,Wednesday
7,22.9375
8,23.425909566389657
9,23.5071212961471
96,81.42466008236996
2,11, 1,11, 0, 4, 0.00,60.00,Wednesday
7,22.65
8,22.798564954445017
9,22.886068570465164
96,84.51891725160684
2,11, 1,11, 0, 5, 0.00,60.00,Wednesday
7,22.312500000000005
8,22.23294372871614
9,22.327674526592369
96,87.45482161185399
2,11, 1,11, 0, 6, 0.00,60.00,Wednesday
7,22.012499999999997
8,21.723986890761119
9,21.82596248173426
96,90.20093911549466
2,11, 1,11, 0, 7, 0.00,60.00,Wednesday
7,22.15
8,21.34096719891258
9,21.432386456494674
96,92.43074834374125
2,11, 1,11, 0, 8, 0.00,60.00,Wednesday
7,23.924999999999998
8,21.48289670809513
9,21.50415082704803
96,92.07123752286134
2,11, 1,11, 0, 9, 0.00,60.00,Wednesday
7,25.65
8,22.536770658318536
9,22.448250472164177
96,86.9813307533688
2,11, 1,11, 0,10, 0.00,60.00,Wednesday
7,27.1
8,24.220225603049177
9,24.06534534706026
96,78.92404695444694
2,11, 1,11, 0,11, 0.00,60.00,Wednesday
7,28.325
8,26.168274523778455
9,25.954084976986008
96,70.51710694649958
2,11, 1,11, 0,12, 0.00,60.00,Wednesday
7,29.0125
8,28.147987005578324
9,27.877678871283515
96,62.95762332060287
2,11, 1,11, 0,13, 0.00,60.00,Wednesday
7,31.2625
8,30.223210244734767
9,29.869557201082367
96,56.07159346394564
2,11, 1,11, 0,14, 0.00,60.00,Wednesday
7,32.5
8,32.51644561725362
9,32.154412904920537
96,49.1767953055671
2,11, 1,11, 0,15, 0.00,60.00,Wednesday
7,32.375
8,34.16212064520431
9,33.90908303928519
96,44.51150535885226
2,11, 1,11, 0,16, 0.00,60.00,Wednesday
7,32.175000000000007
8,35.13148572996578
9,34.99237581711564
96,41.87981464640515
2,11, 1,11, 0,17, 0.00,60.00,Wednesday
7,31.475
8,35.06922554113214
9,35.0660320968815
96,41.69497074678318
2,11, 1,11, 0,18, 0.00,60.00,Wednesday
7,30.475
8,34.026664979612878
9,34.09978547022164
96,44.00304199447682
2,11, 1,11, 0,19, 0.00,60.00,Wednesday
7,29.35
8,32.542887095329437
9,32.62503497040007
96,47.82232226705813
2,11, 1,11, 0,20, 0.00,60.00,Wednesday
7,27.9625
8,31.008095169249456
9,31.094145517185049
96,52.18376336533278
2,11, 1,11, 0,21, 0.00,60.00,Wednesday
7,26.775
8,29.569110877297886
9,29.6549349151422
96,56.70181931775015
2,11, 1,11, 0,22, 0.00,60.00,Wednesday
7,25.775
8,28.261347288657669
9,28.347709811710954
96,61.20580179763807
2,11, 1,11, 0,23, 0.00,60.00,Wednesday
7,24.9
8,27.082356561430076
9,27.15798600516983