Program Version,EnergyPlus, Version 8.9.0-40101eaafd, YMD=2025.09.04 05:36
1,5,Environment Title[],Latitude[deg],Longitude[deg],Time Zone[],Elevation[m]
2,8,Day of Simulation[],Month[],Day of Month[],DST Indicator[1=yes 0=no],Hour[],StartMinute[],EndMinute[],DayType
3,5,Cumulative Day of Simulation[],Month[],Day of Month[],DST Indicator[1=yes 0=no],DayType  ! When Daily Report Variables Requested
4,2,Cumulative Days of Simulation[],Month[]  ! When Monthly Report Variables Requested
5,1,Cumulative Days of Simulation[] ! When Run Period Report Variables Requested
6,1,Calendar Year of Simulation[] ! When Annual Report Variables Requested
7,1,Environment,Site Outdoor Air Drybulb Temperature [C] !Hourly
8,1,ZONE DEFAULT,Zone Mean Radiant Temperature [C] !Hourly
9,1,ZONE DEFAULT,Zone Mean Air Temperature [C] !Hourly
96,1,ZONE DEFAULT,Zone Air Relative Humidity [%] !Hourly
End of Data Dictionary
1,TROPOS3D MODEL, -30.05, -51.17,  -3.00,  48.50
2,1, 1, 1, 0, 1, 0.00,60.00,Sunday
7,22.575
8,23.288770650242637
9,23.345561074779558
96,78.14710120154425
2,1, 1, 1, 0, 2, 0.00,60.00,Sunday
7,22.7375
8,22.66654338590234
9,22.71133756153762
96,81.20180090557771
2,1, 1, 1, 0, 3, 0.00,60.00,Sunday
7,22.325000000000004
8,22.181986724510464
9,22.22562398421814
96,83.63334416910203
2,1, 1, 1, 0, 4, 0.00,60.00,Sunday
7,22.225
8,21.77145256459756
9,21.819831448448594
96,85.7281505462553
2,1, 1, 1, 0, 5, 0.00,60.00,Sunday
7,22.2375
8,21.418122076098905
9,21.473014193820988
96,87.56555456337321
2,1, 1, 1, 0, 6, 0.00,60.00,Sunday
7,22.2
8,21.276392712161589
9,21.29297219151518
96,88.53677632977304
2,1, 1, 1, 0, 7, 0.00,60.00,Sunday
7,22.137500000000004
8,21.921707642583976
9,21.95422370061047
96,85.03815446196188
2,1, 1, 1, 0, 8, 0.00,60.00,Sunday
7,23.225
8,23.14521182665941
9,23.33645016325278
96,78.2174935138028
2,1, 1, 1, 0, 9, 0.00,60.00,Sunday
7,24.3375
8,24.67827396701461
9,25.00363545617602
96,70.7729953779962
2,1, 1, 1, 0,10, 0.00,60.00,Sunday
7,24.6
8,26.119167002968444
9,26.39300330506762
96,65.16233089348514
2,1, 1, 1, 0,11, 0.00,60.00,Sunday
7,24.975
8,27.364468544456949
9,27.53318540954496
96,60.93826579038835
2,1, 1, 1, 0,12, 0.00,60.00,Sunday
7,25.075
8,28.61077364310171
9,28.655657582704806
96,57.083445005150739
2,1, 1, 1, 0,13, 0.00,60.00,Sunday
7,25.6875
8,29.852245465118036
9,29.805391919448338
96,53.41669451952794
2,1, 1, 1, 0,14, 0.00,60.00,Sunday
7,26.225
8,31.00010008183058
9,30.90066481740628
96,50.167702215537499
2,1, 1, 1, 0,15, 0.00,60.00,Sunday
7,26.049999999999998
8,31.763560640948947
9,31.672603882379045
96,48.00839843349672
2,1, 1, 1, 0,16, 0.00,60.00,Sunday
7,25.9
8,32.04275768803536
9,31.992659350252919
96,47.14454892038999
2,1, 1, 1, 0,17, 0.00,60.00,Sunday
7,25.9
8,32.10296742601777
9,32.119805614538048
96,46.8067576893631
2,1, 1, 1, 0,18, 0.00,60.00,Sunday
7,25.65
8,31.857702842905476
9,31.98806829519192
96,47.157693385137807
2,1, 1, 1, 0,19, 0.00,60.00,Sunday
7,24.9375
8,30.97066030588032
9,31.21560082636569
96,49.278709959395218
2,1, 1, 1, 0,20, 0.00,60.00,Sunday
7,23.35
8,29.47986908393773
9,29.71418265349174
96,53.711339125637348
2,1, 1, 1, 0,21, 0.00,60.00,Sunday
7,22.5375
8,27.844227569309198
9,28.0304738075831
96,59.208631646802079
2,1, 1, 1, 0,22, 0.00,60.00,Sunday
7,22.374999999999998
8,26.380477630478649
9,26.518145372854865
96,64.68821521571448
2,1, 1, 1, 0,23, 0.00,60.00,Sunday
7,22.2375
8,25.14489634698164
9,25.24679004139441
96,69.73985025943529
2,1, 1, 1, 0,24, 0.00,60.00,Sunday
7,22.2
8,24.115964461553319
9,24.1857372167878
96,74.29837029765332
2,2, 1, 2, 0, 1, 0.00,60.00,Monday
7,22.012499999999997
8,23.25641163997725
9,23.316772896435976
96,78.28436780627247
2,2, 1, 2, 0, 2, 0.00,60.00,Monday
7,21.8375
8,22.522526687352785
9,22.5816044002851
96,81.84586143982918
2,2, 1, 2, 0, 3, 0.00,60.00,Monday
7,21.862499999999998
8,21.900045866615288
9,21.962492849506995
96,84.9872246991496
2,2, 1, 2, 0, 4, 0.00,60.00,Monday
7,21.9625
8,21.391391599981394
9,21.459879356446448
96,87.63737760747127
2,2, 1, 2, 0, 5, 0.00,60.00,Monday
7,22.0625
8,20.99217340788416
9,21.070504318376828
96,89.75467948031263
2,2, 1, 2, 0, 6, 0.00,60.00,Monday
7,22.225
8,20.785121566456
9,20.849722306869667
96,90.9799636677496
2,2, 1, 2, 0, 7, 0.00,60.00,Monday
7,22.362499999999998
8,21.073716748235744
9,21.134797619252479
96,89.40253962741221
2,2, 1, 2, 0, 8, 0.00,60.00,Monday
7,23.275
8,21.830743675831493
9,21.885303092168479
96,85.39770655033709
2,2, 1, 2, 0, 9, 0.00,60.00,Monday
7,23.862499999999998
8,22.91558123437869
9,22.944682119751467
96,80.07301815364844
2,2, 1, 2, 0,10, 0.00,60.00,Monday
7,23.9625
8,24.089222261242658
9,24.052834986879028
96,74.89734696511924
2,2, 1, 2, 0,11, 0.00,60.00,Monday
7,24.0
8,25.252110885372269
9,25.154864034378453
96,70.1205723536414
2,2, 1, 2, 0,12, 0.00,60.00,Monday
7,24.25
8,26.39303052290603
9,26.248528440223397
96,65.71687238286107
2,2, 1, 2, 0,13, 0.00,60.00,Monday
7,25.15
8,27.559350180748308
9,27.35023776362732
96,61.596667398235059
2,2, 1, 2, 0,14, 0.00,60.00,Monday
7,25.9125
8,29.009419840815825
9,28.791634508626655
96,56.646116947310037
2,2, 1, 2, 0,15, 0.00,60.00,Monday
7,26.6
8,30.537857218880697
9,30.380415220312118
96,51.69153529515023
2,2, 1, 2, 0,16, 0.00,60.00,Monday
7,26.9625
8,31.73473680169964
9,31.704763997068029
96,47.92802251558892
2,2, 1, 2, 0,17, 0.00,60.00,Monday
7,26.75
8,32.599269907132697
9,32.6780812555773
96,45.360233838245509
2,2, 1, 2, 0,18, 0.00,60.00,Monday
7,26.2875
8,32.91985611154869
9,33.131743422935489
96,44.21511660364966
2,2, 1, 2, 0,19, 0.00,60.00,Monday
7,25.475
8,32.25391386216861
9,32.617633228886038
96,45.51746678957024
2,2, 1, 2, 0,20, 0.00,60.00,Monday
7,24.0375
8,30.68417746263126
9,31.054606687114043
96,49.7486457077531
2,2, 1, 2, 0,21, 0.00,60.00,Monday
7,23.2125
8,28.879309926487573
9,29.17069894700212
96,55.4246542587579
2,2, 1, 2, 0,22, 0.00,60.00,Monday
7,22.975
8,27.24802189304813
9,27.46105249332083
96,61.20889162645531
2,2, 1, 2, 0,23, 0.00,60.00,Monday
7,22.9
8,25.866199621379445
9,26.014497427707015
96,66.638799881479
2,2, 1, 2, 0,24, 0.00,60.00,Monday
7,22.8375
8,24.716180448192696
9,24.81190657261664
96,71.569050243477
2,3, 1, 3, 0, 1, 0.00,60.00,Tuesday
7,22.425
8,23.74573395244821
9,23.820378192288115
96,75.94635737537698
2,3, 1, 3, 0, 2, 0.00,60.00,Tuesday
7,22.075
8,22.89068315722253
9,22.96480669737955
96,79.96833801912472
2,3, 1, 3, 0, 3, 0.00,60.00,Tuesday
7,21.500000000000005
8,22.121583476667469
9,22.204423415601398
96,83.74586544745339
2,3, 1, 3, 0, 4, 0.00,60.00,Tuesday
7,21.1375
8,21.4331005833335
9,21.52806803123321
96,87.27507219987312
2,3, 1, 3, 0, 5, 0.00,60.00,Tuesday
7,21.0375
8,20.838521205491554
9,20.950083520143335
96,90.42383631721451
2,3, 1, 3, 0, 6, 0.00,60.00,Tuesday
7,21.0625
8,20.545177320554033
9,20.62041954944418
96,92.2748304738979
2,3, 1, 3, 0, 7, 0.00,60.00,Tuesday
7,21.162499999999999
8,21.28502467976696
9,21.304237420080477
96,88.49045234917276
2,3, 1, 3, 0, 8, 0.00,60.00,Tuesday
7,22.825
8,22.717631321973113
9,22.89258626557199
96,80.35897870389072
2,3, 1, 3, 0, 9, 0.00,60.00,Tuesday
7,24.2375
8,24.531050562499354
9,24.910454089682326
96,71.18639057534287
2,3, 1, 3, 0,10, 0.00,60.00,Tuesday
7,24.8125
8,26.381622314690959
9,26.78567483138891
96,63.683976107681697
2,3, 1, 3, 0,11, 0.00,60.00,Tuesday
7,25.375
8,27.993737285496978
9,28.28126929033541
96,58.342983547920017
2,3, 1, 3, 0,12, 0.00,60.00,Tuesday
7,25.6625
8,29.322080526483885
9,29.494663103566798
96,54.37978219088997
2,3, 1, 3, 0,13, 0.00,60.00,Tuesday
7,26.887500000000004
8,30.53134975907784
9,30.545783197890097
96,51.19533266411932
2,3, 1, 3, 0,14, 0.00,60.00,Tuesday
7,27.7875
8,31.973735813759395
9,31.88013976198976
96,47.46090858570638
2,3, 1, 3, 0,15, 0.00,60.00,Tuesday
7,27.9625
8,33.51151807566634
9,33.3922315937823
96,43.58777307474707
2,3, 1, 3, 0,16, 0.00,60.00,Tuesday
7,28.125000000000005
8,34.73207737463156
9,34.717289267515678
96,40.481706609466517
2,3, 1, 3, 0,17, 0.00,60.00,Tuesday
7,27.8875
8,35.425212681658418
9,35.55491231501594
96,38.64534104959952
2,3, 1, 3, 0,18, 0.00,60.00,Tuesday
7,27.3875
8,35.455163205569338
9,35.720171407332987
96,38.29435428241005
2,3, 1, 3, 0,19, 0.00,60.00,Tuesday
7,26.6375
8,34.48532528278503
9,34.90420178456971
96,40.0682773113063
2,3, 1, 3, 0,20, 0.00,60.00,Tuesday
7,24.55
8,32.56416042132692
9,32.99269518337432
96,44.595331505687187
2,3, 1, 3, 0,21, 0.00,60.00,Tuesday
7,23.1875
8,30.365980710756998
9,30.70344391459656
96,50.76590629924329
2,3, 1, 3, 0,22, 0.00,60.00,Tuesday
7,22.9375
8,28.37842615864887
9,28.63081409801096
96,57.18631330840515
2,3, 1, 3, 0,23, 0.00,60.00,Tuesday
7,22.9
8,26.717417599798645
9,26.901398122435628
96,63.25082411588182
2,3, 1, 3, 0,24, 0.00,60.00,Tuesday
7,22.8375
8,25.353704815577339
9,25.48176082236254
96,68.77557573850526
2,4, 1, 4, 0, 1, 0.00,60.00,Wednesday
7,22.425
8,24.224553833267998
9,24.31416313768581
96,73.73150605560918
2,4, 1, 4, 0, 2, 0.00,60.00,Wednesday
7,22.2625
8,23.274013815699925
9,23.350479547865989
96,78.12663444331301
2,4, 1, 4, 0, 3, 0.00,60.00,Wednesday
7,21.862500000000006
8,22.469098409636524
9,22.547735959552658
96,82.015661816022
2,4, 1, 4, 0, 4, 0.00,60.00,Wednesday
7,21.6
8,21.787881547211549
9,21.87303863303478
96,85.45325022113642
2,4, 1, 4, 0, 5, 0.00,60.00,Wednesday
7,21.475
8,21.226401736720225
9,21.32053407458252
96,88.38979561872989
2,4, 1, 4, 0, 6, 0.00,60.00,Wednesday
7,21.275
8,20.937802974433347
9,20.99501703795969
96,90.1712108150578
2,4, 1, 4, 0, 7, 0.00,60.00,Wednesday
7,21.1375
8,21.6002909939531
9,21.64472560239432
96,86.66283385920065
2,4, 1, 4, 0, 8, 0.00,60.00,Wednesday
7,23.1625
8,23.025973562611016
9,23.219510165808058
96,78.78692834564585
2,4, 1, 4, 0, 9, 0.00,60.00,Wednesday
7,24.9625
8,24.940662419352365
9,25.34270862785731
96,69.38500024464243
2,4, 1, 4, 0,10, 0.00,60.00,Wednesday
7,25.55
8,26.988317826548675
9,27.456346602651885
96,61.23644719783706
2,4, 1, 4, 0,11, 0.00,60.00,Wednesday
7,26.137499999999997
8,28.93493608104626
9,29.291482076799214
96,55.036610693380108
2,4, 1, 4, 0,12, 0.00,60.00,Wednesday
7,26.7125
8,30.69603791072489
9,30.920260771152337
96,50.121228360034439
2,4, 1, 4, 0,13, 0.00,60.00,Wednesday
7,28.9625
8,32.24288946869179
9,32.32625155866795
96,46.27667177196027
2,4, 1, 4, 0,14, 0.00,60.00,Wednesday
7,30.3875
8,33.77653152628737
9,33.70769343186349
96,42.824773281352928
2,4, 1, 4, 0,15, 0.00,60.00,Wednesday
7,30.875
8,35.14337972325766
9,35.000034430800948
96,39.852625876624177
2,4, 1, 4, 0,16, 0.00,60.00,Wednesday
7,30.9125
8,35.999740209179389
9,35.900649309129168
96,37.917879473423479
2,4, 1, 4, 0,17, 0.00,60.00,Wednesday
7,30.050000000000006
8,36.18123094028193
9,36.2021540315836
96,37.293676068194489
2,4, 1, 4, 0,18, 0.00,60.00,Wednesday
7,29.1625
8,35.535289423451548
9,35.70053315661714
96,38.339446827366199
2,4, 1, 4, 0,19, 0.00,60.00,Wednesday
7,27.8375
8,34.1339744274191
9,34.314694838498528
96,41.40602868031462
2,4, 1, 4, 0,20, 0.00,60.00,Wednesday
7,26.200000000000004
8,32.32602458092079
9,32.481729802210178
96,45.88507205103613
2,4, 1, 4, 0,21, 0.00,60.00,Wednesday
7,25.4125
8,30.510187015182106
9,30.63628277551445
96,50.946633580144837
2,4, 1, 4, 0,22, 0.00,60.00,Wednesday
7,25.175000000000006
8,28.905099864552406
9,29.005652089495265
96,55.94627873898068
2,4, 1, 4, 0,23, 0.00,60.00,Wednesday
7,24.975
8,27.560941471341605
9,27.64069086463208
96,60.56010479500031
2,4, 1, 4, 0,24, 0.00,60.00,Wednesday
7,24.8375
8,26.45044431027306
9,26.502530995466718
96,64.73825270557414
2,5, 1, 5, 0, 1, 0.00,60.00,Thursday
7,24.175
8,25.49837578269714
9,25.54955156762127
96,68.48991618463423
2,5, 1, 5, 0, 2, 0.00,60.00,Thursday
7,23.675000000000006
8,24.65750913692444
9,24.71082056649902
96,71.9958574289418
2,5, 1, 5, 0, 3, 0.00,60.00,Thursday
7,23.475
8,23.931145292808524
9,23.985506710529529
96,75.19147646670872
2,5, 1, 5, 0, 4, 0.00,60.00,Thursday
7,23.2125
8,23.30943196794454
9,23.3669299274796
96,78.04381540989096
2,5, 1, 5, 0, 5, 0.00,60.00,Thursday
7,23.0375
8,22.782030759840454
9,22.84129458401904
96,80.56349530774546
2,5, 1, 5, 0, 6, 0.00,60.00,Thursday
7,22.812500000000005
8,22.480788785207904
9,22.49955442002296
96,82.24903699725178
2,5, 1, 5, 0, 7, 0.00,60.00,Thursday
7,22.7625
8,22.742933106160576
9,22.745776266551844
96,81.03122035645701
2,5, 1, 5, 0, 8, 0.00,60.00,Thursday
7,24.175
8,23.34890954275786
9,23.398304496019006
96,77.90015128596369
2,5, 1, 5, 0, 9, 0.00,60.00,Thursday
7,25.437500000000005
8,24.15981269828841
9,24.232991447630679
96,74.0864548066591
2,5, 1, 5, 0,10, 0.00,60.00,Thursday
7,25.637500000000004
8,25.09564612352267
9,25.123443537542177
96,70.24732214113985
2,5, 1, 5, 0,11, 0.00,60.00,Thursday
7,25.9125
8,25.993806080707196
9,25.96872158120358
96,66.80765862673026
2,5, 1, 5, 0,12, 0.00,60.00,Thursday
7,26.0375
8,26.83676157682014
9,26.758056587083688
96,63.7670336061083
2,5, 1, 5, 0,13, 0.00,60.00,Thursday
7,27.1875
8,27.689606594933808
9,27.554773300279856
96,60.85685455984203
2,5, 1, 5, 0,14, 0.00,60.00,Thursday
7,28.275
8,28.54743133298369
9,28.38365141627694
96,57.985874224182158
2,5, 1, 5, 0,15, 0.00,60.00,Thursday
7,28.1875
8,29.244692441646508
9,29.08648868309427
96,55.66934298116559
2,5, 1, 5, 0,16, 0.00,60.00,Thursday
7,27.874999999999998
8,29.697943047922967
9,29.572742067565753
96,54.12729352403673
2,5, 1, 5, 0,17, 0.00,60.00,Thursday
7,27.8
8,29.801776897546774
9,29.730828566066664
96,53.6360922150939
2,5, 1, 5, 0,18, 0.00,60.00,Thursday
7,27.425
8,29.488964236813886
9,29.47673318042862
96,54.42826898596047
2,5, 1, 5, 0,19, 0.00,60.00,Thursday
7,26.825000000000004
8,28.811552037025704
9,28.838588618698048
96,56.47550162572442
2,5, 1, 5, 0,20, 0.00,60.00,Thursday
7,26.1625
8,27.962755085939329
9,28.00482825725075
96,59.27943918664012
2,5, 1, 5, 0,21, 0.00,60.00,Thursday
7,25.775
8,27.11232749006475
9,27.15738307229465
96,62.28950264213443
2,5, 1, 5, 0,22, 0.00,60.00,Thursday
7,25.45
8,26.335165986517365
9,26.37906517749517
96,65.20614498527945
2,5, 1, 5, 0,23, 0.00,60.00,Thursday
7,25.049999999999998
8,25.651537870723194
9,25.693971857651698
96,67.90138190341574
2,5, 1, 5, 0,24, 0.00,60.00,Thursday
7,24.9625
8,25.053045271229246
9,25.09478934836301
96,70.36206429571752
2,6, 1, 6, 0, 1, 0.00,60.00,Friday
7,24.874999999999998
8,24.533753110715929
9,24.574381487608404
96,72.58113790653312
2,6, 1, 6, 0, 2, 0.00,60.00,Friday
7,24.7375
8,24.089122690167359
9,24.128558780500119
96,74.5451245920692
2,6, 1, 6, 0, 3, 0.00,60.00,Friday
7,24.575
8,23.70298107173908
9,23.74308196455483
96,76.29181240468121
2,6, 1, 6, 0, 4, 0.00,60.00,Friday
7,24.4375
8,23.365349620109496
9,23.403402707457759
96,77.86933752912896
2,6, 1, 6, 0, 5, 0.00,60.00,Friday
7,24.3375
8,23.066705297275278
9,23.106497431243584
96,79.27842123535842
2,6, 1, 6, 0, 6, 0.00,60.00,Friday
7,24.362499999999998
8,22.839662858752619
9,22.870453551792975
96,80.41861592997567
2,6, 1, 6, 0, 7, 0.00,60.00,Friday
7,24.4625
8,22.840546938840804
9,22.85756517116379
96,80.48137489867892
2,6, 1, 6, 0, 8, 0.00,60.00,Friday
7,25.1875
8,23.1769032230585
9,23.166523641514418
96,78.99367888471272
2,6, 1, 6, 0, 9, 0.00,60.00,Friday
7,25.35
8,23.951021258806809
9,23.90665352023165
96,75.55340923766276
2,6, 1, 6, 0,10, 0.00,60.00,Friday
7,25.3875
8,25.02008955187325
9,24.94821434059871
96,70.98997424045912
2,6, 1, 6, 0,11, 0.00,60.00,Friday
7,25.999999999999998
8,26.153033877112735
9,26.061206958700426
96,66.4489566262296
2,6, 1, 6, 0,12, 0.00,60.00,Friday
7,26.425
8,27.25170698777005
9,27.130185589001525
96,62.39229303159785
2,6, 1, 6, 0,13, 0.00,60.00,Friday
7,27.5
8,28.292394429275296
9,28.125624672259126
96,58.866063952203408
2,6, 1, 6, 0,14, 0.00,60.00,Friday
7,28.6
8,29.345084241693667
9,29.13878960267834
96,55.506805717524759
2,6, 1, 6, 0,15, 0.00,60.00,Friday
7,29.15
8,30.44765235295835
9,30.19426151306853
96,52.23624703068295
2,6, 1, 6, 0,16, 0.00,60.00,Friday
7,29.425
8,31.646987225450368
9,31.431286557728045
96,48.67915215670497
2,6, 1, 6, 0,17, 0.00,60.00,Friday
7,29.5
8,32.50621672645262
9,32.43687134779087
96,45.979562763867168
2,6, 1, 6, 0,18, 0.00,60.00,Friday
7,29.5
8,32.57822597926126
9,32.63312849498543
96,45.471626514122217
2,6, 1, 6, 0,19, 0.00,60.00,Friday
7,28.875
8,31.893580627779014
9,31.99755223254382
96,47.13746976460821
2,6, 1, 6, 0,20, 0.00,60.00,Friday
7,27.687500000000005
8,30.796215076015167
9,30.921907373564076
96,50.109884069198297
2,6, 1, 6, 0,21, 0.00,60.00,Friday
7,26.825000000000004
8,29.614026421521947
9,29.736263368768549
96,53.630011789675169
2,6, 1, 6, 0,22, 0.00,60.00,Friday
7,26.4125
8,28.523002756174198
9,28.60879298365221
96,57.23700985367914
2,6, 1, 6, 0,23, 0.00,60.00,Friday
7,26.049999999999998
8,27.55796230193571
9,27.62666862684444
96,60.602854621800137
2,6, 1, 6, 0,24, 0.00,60.00,Friday
7,25.9625
8,26.709963938956883
9,26.777027139410593
96,63.69617735803341
2,7, 1, 7, 0, 1, 0.00,60.00,Saturday
7,25.6875
8,25.968433363429285
9,26.035912270684407
96,66.54084807289388
2,7, 1, 7, 0, 2, 0.00,60.00,Saturday
7,25.312500000000005
8,25.3086171274978
9,25.378801750784015
96,69.18373012464554
2,7, 1, 7, 0, 3, 0.00,60.00,Saturday
7,24.699999999999997
8,24.70320629397004
9,24.777615352868908
96,71.70607266684186
2,7, 1, 7, 0, 4, 0.00,60.00,Saturday
7,24.3375
8,24.15107748778982
9,24.226837776886354
96,74.10813829607712
2,7, 1, 7, 0, 5, 0.00,60.00,Saturday
7,24.3
8,23.668067570219287
9,23.739382011532688
96,76.3096388845941
2,7, 1, 7, 0, 6, 0.00,60.00,Saturday
7,24.2375
8,23.305308865565999
9,23.354407349169106
96,78.0997984048094
2,7, 1, 7, 0, 7, 0.00,60.00,Saturday
7,24.324999999999997
8,23.15443606414452
9,23.173471947865204
96,78.9570648357856
2,7, 1, 7, 0, 8, 0.00,60.00,Saturday
7,24.3375
8,23.296220623440477
9,23.27933678613738
96,78.45436524482779
2,7, 1, 7, 0, 9, 0.00,60.00,Saturday
7,24.2375
8,23.726174559049576
9,23.67048311210388
96,76.62773349571885
2,7, 1, 7, 0,10, 0.00,60.00,Saturday
7,24.3875
8,24.382729580557475
9,24.288861021691536
96,73.83573252306687
2,7, 1, 7, 0,11, 0.00,60.00,Saturday
7,24.4375
8,25.17701766911977
9,25.050297828429167
96,70.55238262435273
2,7, 1, 7, 0,12, 0.00,60.00,Saturday
7,24.4
8,25.971427584460785
9,25.824727707745575
96,67.37853049844853
2,7, 1, 7, 0,13, 0.00,60.00,Saturday
7,25.3375
8,26.672784188867995
9,26.512201467660149
96,64.69508810838694
2,7, 1, 7, 0,14, 0.00,60.00,Saturday
7,26.275
8,27.30924045238428
9,27.139520215812668
96,62.351757334101979
2,7, 1, 7, 0,15, 0.00,60.00,Saturday
7,26.75
8,27.849136773297319
9,27.68539800790714
96,60.39002728658576
2,7, 1, 7, 0,16, 0.00,60.00,Saturday
7,26.8375
8,28.29903976814073
9,28.15083906229501
96,58.77242173486013
2,7, 1, 7, 0,17, 0.00,60.00,Saturday
7,26.7375
8,28.592414721322716
9,28.48683284880665
96,57.63443334241056
2,7, 1, 7, 0,18, 0.00,60.00,Saturday
7,26.512499999999997
8,28.502963145194749
9,28.469086634629229
96,57.69406918672604
2,7, 1, 7, 0,19, 0.00,60.00,Saturday
7,25.775
8,27.917357175632298
9,27.944190369164106
96,59.48770016178814
2,7, 1, 7, 0,20, 0.00,60.00,Saturday
7,24.15
8,27.009409595918585
9,27.05679649376323
96,62.66121563250734
2,7, 1, 7, 0,21, 0.00,60.00,Saturday
7,23.275
8,26.02636027079974
9,26.073439497401368
96,66.39770699529481
2,7, 1, 7, 0,22, 0.00,60.00,Saturday
7,23.2
8,25.14426950079579
9,25.184228543816503
96,69.99212090525558
2,7, 1, 7, 0,23, 0.00,60.00,Saturday
7,23.075
8,24.41234031116349
9,24.444332387040157
96,73.15066239604961
2,7, 1, 7, 0,24, 0.00,60.00,Saturday
7,23.0
8,23.808077393344264
9,23.83423816242493
96,75.87667421700627
2,8, 1, 8, 0, 1, 0.00,60.00,Sunday
7,22.625
8,23.28131428855314
9,23.30843613945371
96,78.31896610959118
2,8, 1, 8, 0, 2, 0.00,60.00,Sunday
7,22.15
8,22.785427212881875
9,22.817817201444734
96,80.67830087091322
2,8, 1, 8, 0, 3, 0.00,60.00,Sunday
7,21.562499999999998
8,22.308442137831336
9,22.34650392058458
96,83.02054338921005
2,8, 1, 8, 0, 4, 0.00,60.00,Sunday
7,21.425
8,21.871709669165534
9,21.910967891518447
96,85.25274713134508
2,8, 1, 8, 0, 5, 0.00,60.00,Sunday
7,21.312500000000005
8,21.48040353952598
9,21.522564829547336
96,87.30085652347657
2,8, 1, 8, 0, 6, 0.00,60.00,Sunday
7,21.2
8,21.229372414785126
9,21.240168757094055
96,88.82316484961643
2,8, 1, 8, 0, 7, 0.00,60.00,Sunday
7,21.324999999999997
8,21.520306087208185
9,21.52159089302364
96,87.30808423937889
2,8, 1, 8, 0, 8, 0.00,60.00,Sunday
7,22.0875
8,22.229089438649603
9,22.2972554410029
96,83.27894199681762
2,8, 1, 8, 0, 9, 0.00,60.00,Sunday
7,22.5625
8,23.1553187340943
9,23.23523203121497
96,78.67368552049217
2,8, 1, 8, 0,10, 0.00,60.00,Sunday
7,22.5375
8,24.230154631562145
9,24.226572586437717
96,74.11897859825302
2,8, 1, 8, 0,11, 0.00,60.00,Sunday
7,22.5
8,25.417353649690626
9,25.341429800334045
96,69.34787589793261
2,8, 1, 8, 0,12, 0.00,60.00,Sunday
7,22.687499999999998
8,26.596681770555557
9,26.481461303230597
96,64.82036924108212
2,8, 1, 8, 0,13, 0.00,60.00,Sunday
7,24.4875
8,27.700966120431759
9,27.548030747044675
96,60.88497088434591
2,8, 1, 8, 0,14, 0.00,60.00,Sunday
7,25.8125
8,28.79530443151382
9,28.61102485635964
96,57.22929547117759
2,8, 1, 8, 0,15, 0.00,60.00,Sunday
7,26.187499999999998
8,29.726025234150627
9,29.557938191072766
96,54.177924079112688
2,8, 1, 8, 0,16, 0.00,60.00,Sunday
7,26.55
8,30.359331171673597
9,30.23600264743194
96,52.104902195409028
2,8, 1, 8, 0,17, 0.00,60.00,Sunday
7,26.950000000000004
8,30.66041015161662
9,30.598325399480545
96,51.03388650264491
2,8, 1, 8, 0,18, 0.00,60.00,Sunday
7,27.1625
8,30.593132965782226
9,30.5969029293316
96,51.038120166535609
2,8, 1, 8, 0,19, 0.00,60.00,Sunday
7,26.45
8,30.032751736089315
9,30.10786525553958
96,52.49149960656499
2,8, 1, 8, 0,20, 0.00,60.00,Sunday
7,24.75
8,28.955232745742437
9,29.094779414483573
96,55.65379432465157
2,8, 1, 8, 0,21, 0.00,60.00,Sunday
7,23.562499999999998
8,27.65304872780102
9,27.7700614672277
96,60.10694066429486
2,8, 1, 8, 0,22, 0.00,60.00,Sunday
7,23.049999999999998
8,26.35019774521127
9,26.45649327957767
96,64.92038644215575
2,8, 1, 8, 0,23, 0.00,60.00,Sunday
7,22.7125
8,25.165979251366616
9,25.255406051851716
96,69.70316455157423
2,8, 1, 8, 0,24, 0.00,60.00,Sunday
7,22.5375
8,24.149474430072325
9,24.22439812517237
96,74.12595131657304
2,9, 1, 9, 0, 1, 0.00,60.00,Monday
7,22.312500000000005
8,23.29622711613814
9,23.368933913287504
96,78.037863907506
2,9, 1, 9, 0, 2, 0.00,60.00,Monday
7,22.137500000000004
8,22.58341418704452
9,22.656488566214898
96,81.47415175077424
2,9, 1, 9, 0, 3, 0.00,60.00,Monday
7,21.85
8,21.97993914118547
9,22.05767983002511
96,84.49509059260478
2,9, 1, 9, 0, 4, 0.00,60.00,Monday
7,21.7625
8,21.471531129015817
9,21.55454310136783
96,87.13102854108742
2,9, 1, 9, 0, 5, 0.00,60.00,Monday
7,21.862499999999998
8,21.06217152399428
9,21.150229320721608
96,89.31641182100081
2,9, 1, 9, 0, 6, 0.00,60.00,Monday
7,21.8375
8,20.902462528028896
9,20.95487347377885
96,90.39405600841175
2,9, 1, 9, 0, 7, 0.00,60.00,Monday
7,22.05
8,21.385452060773394
9,21.44757453765934
96,87.70769355993014
2,9, 1, 9, 0, 8, 0.00,60.00,Monday
7,23.6375
8,22.2733735638153
9,22.361930007254704
96,82.95495828622549
2,9, 1, 9, 0, 9, 0.00,60.00,Monday
7,24.4375
8,23.539355145363648
9,23.67038297193642
96,76.64951065373677
2,9, 1, 9, 0,10, 0.00,60.00,Monday
7,24.525
8,25.077046482225368
9,25.135763332136358
96,70.21435267979007
2,9, 1, 9, 0,11, 0.00,60.00,Monday
7,24.975
8,26.630562449084363
9,26.631475411030629
96,64.25905891064407
2,9, 1, 9, 0,12, 0.00,60.00,Monday
7,25.5125
8,28.039813843655325
9,27.967462960788944
96,59.41599460900184
2,9, 1, 9, 0,13, 0.00,60.00,Monday
7,26.95
8,29.28692968544974
9,29.11866389927802
96,55.575917311190888
2,9, 1, 9, 0,14, 0.00,60.00,Monday
7,27.824999999999997
8,30.32515087688052
9,30.156643127485315
96,52.34594032951477
2,9, 1, 9, 0,15, 0.00,60.00,Monday
7,27.9
8,30.911905739126405
9,30.7677627766492
96,50.54306384118756
2,9, 1, 9, 0,16, 0.00,60.00,Monday
7,27.4625
8,30.917383806500966
9,30.830633350871474
96,50.36151041779438
2,9, 1, 9, 0,17, 0.00,60.00,Monday
7,26.95
8,30.403878155951639
9,30.367613306601549
96,51.71498138929216
2,9, 1, 9, 0,18, 0.00,60.00,Monday
7,26.425
8,29.561627704056453
9,29.555603586685046
96,54.186458977871058
2,9, 1, 9, 0,19, 0.00,60.00,Monday
7,25.45
8,28.563076135847397
9,28.577225493471418
96,57.341440544711257
2,9, 1, 9, 0,20, 0.00,60.00,Monday
7,23.8125
8,27.488678247278249
9,27.517816569628207
96,60.99306903697409
2,9, 1, 9, 0,21, 0.00,60.00,Monday
7,23.1625
8,26.433018599482318
9,26.467579048610696
96,64.87117720900571
2,9, 1, 9, 0,22, 0.00,60.00,Monday
7,23.2625
8,25.516088993062639
9,25.547221397951185
96,68.49826440019462
2,9, 1, 9, 0,23, 0.00,60.00,Monday
7,23.3
8,24.771358712071998
9,24.794322641248244
96,71.63591456466064
2,9, 1, 9, 0,24, 0.00,60.00,Monday
7,23.362499999999998
8,24.178411361910876
9,24.191992688580294
96,74.26331800724882
2,10, 1,10, 0, 1, 0.00,60.00,Tuesday
7,23.4625
8,23.707026970211499
9,23.712626065841588
96,76.43245443441951
2,10, 1,10, 0, 2, 0.00,60.00,Tuesday
7,23.5
8,23.326731909495707
9,23.325480515255994
96,78.23673143824999
2,10, 1,10, 0, 3, 0.00,60.00,Tuesday
7,23.5625
8,23.017316814707234
9,23.01079312328169
96,79.7388134225179
2,10, 1,10, 0, 4, 0.00,60.00,Tuesday
7,23.6625
8,22.747155651470217
9,22.74624860347739
96,81.02699421785573
2,10, 1,10, 0, 5, 0.00,60.00,Tuesday
7,23.575
8,22.482677656474864
9,22.493936500127476
96,82.2776537713282
2,10, 1,10, 0, 6, 0.00,60.00,Tuesday
7,23.5
8,22.412571602174145
9,22.39328763075302
96,82.78374919278468
2,10, 1,10, 0, 7, 0.00,60.00,Tuesday
7,23.5
8,22.937344599563244
9,22.934281975721367
96,80.11490621423403
2,10, 1,10, 0, 8, 0.00,60.00,Tuesday
7,24.312499999999998
8,23.96902295677753
9,23.970825043523978
96,75.27627447758126
2,10, 1,10, 0, 9, 0.00,60.00,Tuesday
7,24.987500000000006
8,25.499655814409914
9,25.548916828417675
96,68.51691417370737
2,10, 1,10, 0,10, 0.00,60.00,Tuesday
7,25.475
8,27.31278093726016
9,27.359406441298384
96,61.583866208589018
2,10, 1,10, 0,11, 0.00,60.00,Tuesday
7,26.0125
8,29.17555291577333
9,29.203551509999735
96,55.31863041449818
2,10, 1,10, 0,12, 0.00,60.00,Tuesday
7,26.450000000000004
8,30.897043072293969
9,30.901218185278805
96,50.176994503008668
2,10, 1,10, 0,13, 0.00,60.00,Tuesday
7,27.725
8,32.37646260591755
9,32.3092090395264
96,46.320269838085099
2,10, 1,10, 0,14, 0.00,60.00,Tuesday
7,28.775
8,33.600927923238369
9,33.47774313197194
96,43.37267245722768
2,10, 1,10, 0,15, 0.00,60.00,Tuesday
7,29.3125
8,34.460271572304907
9,34.309391678063068
96,41.40377366166324
2,10, 1,10, 0,16, 0.00,60.00,Tuesday
7,29.75
8,34.97597368937055
9,34.839168401762758
96,40.20286482693358
2,10, 1,10, 0,17, 0.00,60.00,Tuesday
7,29.775
8,35.12363862374244
9,35.03767523426055
96,39.76287209877888
2,10, 1,10, 0,18, 0.00,60.00,Tuesday
7,29.637500000000004
8,34.79326182474083
9,34.77827803656571
96,40.33937387624606
2,10, 1,10, 0,19, 0.00,60.00,Tuesday
7,29.4125
8,33.901596044220067
9,33.98548749214631
96,42.160357053385897
2,10, 1,10, 0,20, 0.00,60.00,Tuesday
7,27.612500000000006
8,32.46312370690912
9,32.58545088888863
96,45.610729398729628
2,10, 1,10, 0,21, 0.00,60.00,Tuesday
7,26.0375
8,30.812913100451114
9,30.933912367834738
96,50.08586395405291
2,10, 1,10, 0,22, 0.00,60.00,Tuesday
7,25.3875
8,29.243654480967004
9,29.34927785537795
96,54.84677379990114
2,10, 1,10, 0,23, 0.00,60.00,Tuesday
7,24.8875
8,27.857548011411738
9,27.95041610256886
96,59.47666137596988
2,10, 1,10, 0,24, 0.00,60.00,Tuesday
7,24.512499999999997
8,26.6680486773663
9,26.744943481035706
96,63.82282753434928
2,11, 1,11, 0, 1, 0.00,60.00,Wednesday
7,24.15
8,25.654680648714483
9,25.719928541019408
96,67.80186185519863
2,11, 1,11, 0, 2, 0.00,60.00,Wednesday
7,23.874999999999998
8,24.7845709209945
9,24.850307504230338
96,71.39904121075179
2,11, 1,11, 0, 3, 0.00,60.00,Wednesday
7,23.237499999999998
8,24.026575287713095
9,24.095380703340834
96,74.69770033718955
2,11, 1,11, 0, 4, 0.00,60.00,Wednesday
7,22.9
8,23.36490374478235
9,23.43576156220413
96,77.720787350422
2,11, 1,11, 0, 5, 0.00,60.00,Wednesday
7,22.9
8,22.79594285177032
9,22.86941028921946
96,80.42705197907087
2,11, 1,11, 0, 6, 0.00,60.00,Wednesday
7,22.8375
8,22.453263855298539
9,22.48806823017229
96,82.306606326326
2,11, 1,11, 0, 7, 0.00,60.00,Wednesday
7,22.8
8,22.82659153385861
9,22.85843084107048
96,80.48336415725578
2,11, 1,11, 0, 8, 0.00,60.00,Wednesday
7,24.3625
8,23.79409147940556
9,23.88056283842613
96,75.68646097324513
2,11, 1,11, 0, 9, 0.00,60.00,Wednesday
7,25.674999999999998
8,25.244656266694017
9,25.387828730753005
96,69.170785394857
2,11, 1,11, 0,10, 0.00,60.00,Wednesday
7,26.2125
8,26.9667888858852
9,27.058001561998969
96,62.676294152506439
2,11, 1,11, 0,11, 0.00,60.00,Wednesday
7,26.7125
8,28.695031788229785
9,28.72151077250125
96,56.877035536614418
2,11, 1,11, 0,12, 0.00,60.00,Wednesday
7,27.0875
8,30.234515926731818
9,30.19159290439088
96,52.249610650652957
2,11, 1,11, 0,13, 0.00,60.00,Wednesday
7,28.825
8,31.60720579885894
9,31.490466195695299
96,48.517467120367097
2,11, 1,11, 0,14, 0.00,60.00,Wednesday
7,30.05
8,33.0512629727851
9,32.85581620662951
96,44.918273518140548
2,11, 1,11, 0,15, 0.00,60.00,Wednesday
7,30.324999999999997
8,34.4811789450838
9,34.265877299990467
96,41.512485073644338
2,11, 1,11, 0,16, 0.00,60.00,Wednesday
7,30.65
8,35.56703644279744
9,35.44837170516208
96,38.876469577851079
2,11, 1,11, 0,17, 0.00,60.00,Wednesday
7,30.675000000000006
8,36.08728315272729
9,36.12678141509143
96,37.448838063171368
2,11, 1,11, 0,18, 0.00,60.00,Wednesday
7,30.4125
8,36.010080891842928
9,36.19300286026423
96,37.312841071361258
2,11, 1,11, 0,19, 0.00,60.00,Wednesday
7,29.8
8,35.18336289172114
9,35.470397394691968
96,38.830498326363358
2,11, 1,11, 0,20, 0.00,60.00,Wednesday
7,27.6875
8,33.59892650197993
9,33.8640418046479
96,42.46310167749843
2,11, 1,11, 0,21, 0.00,60.00,Wednesday
7,26.2875
8,31.75196429551366
9,31.945455002480146
96,47.29497595584343
2,11, 1,11, 0,22, 0.00,60.00,Wednesday
7,25.7875
8,30.043208344316978
9,30.182352717089644
96,52.284262154152539
2,11, 1,11, 0,23, 0.00,60.00,Wednesday
7,25.4125
8,28.570358678131716
9,28.677776902830229
96,57.01588717903458
2,11, 1,11, 0,24, 0.00,60.00,Wednesday
7,25.2375
8,27.312033007025535
9,27.40035128223388