Program Version,EnergyPlus, Version 8.9.0-40101eaafd, YMD=2025.08.27 01:28
1,5,Environment Title[],Latitude[deg],Longitude[deg],Time Zone[],Elevation[m]
2,8,Day of Simulation[],Month[],Day of Month[],DST Indicator[1=yes 0=no],Hour[],StartMinute[],EndMinute[],DayType
3,5,Cumulative Day of Simulation[],Month[],Day of Month[],DST Indicator[1=yes 0=no],DayType  ! When Daily Report Variables Requested
4,2,Cumulative Days of Simulation[],Month[]  ! When Monthly Report Variables Requested
5,1,Cumulative Days of Simulation[] ! When Run Period Report Variables Requested
6,1,Calendar Year of Simulation[] ! When Annual Report Variables Requested
7,1,Environment,Site Outdoor Air Drybulb Temperature [C] !Hourly
8,1,ZONE DEFAULT,Zone Mean Radiant Temperature [C] !Hourly
9,1,ZONE DEFAULT,Zone Mean Air Temperature [C] !Hourly
96,1,ZONE DEFAULT,Zone Air Relative Humidity [%] !Hourly
End of Data Dictionary
1,TROPOS3D MODEL,  -3.80, -38.53,  -3.00,  41.00
2,1, 1, 1, 0, 1, 0.00,60.00,Sunday
7,26.7375
8,25.05274071581385
9,25.14184888157678
96,86.71252359616173
2,1, 1, 1, 0, 2, 0.00,60.00,Sunday
7,26.7
8,24.590119248622569
9,24.67294522852186
96,89.13272851440698
2,1, 1, 1, 0, 3, 0.00,60.00,Sunday
7,26.7
8,24.210042704003159
9,24.290603231845816
96,91.18024968952313
2,1, 1, 1, 0, 4, 0.00,60.00,Sunday
7,26.637500000000004
8,23.8980468889208
9,23.979521661187304
96,92.88513795104933
2,1, 1, 1, 0, 5, 0.00,60.00,Sunday
7,26.5375
8,23.63134406455104
9,23.716224298888876
96,94.4049717243694
2,1, 1, 1, 0, 6, 0.00,60.00,Sunday
7,26.687499999999998
8,23.44796165489887
9,23.52272942595868
96,95.58935478409663
2,1, 1, 1, 0, 7, 0.00,60.00,Sunday
7,27.425
8,23.617394673192714
9,23.66344073881607
96,94.86295784051677
2,1, 1, 1, 0, 8, 0.00,60.00,Sunday
7,28.3625
8,24.32632639756052
9,24.32389490409921
96,91.24474997997737
2,1, 1, 1, 0, 9, 0.00,60.00,Sunday
7,29.3875
8,25.620998659740825
9,25.527339394644778
96,84.99271933202289
2,1, 1, 1, 0,10, 0.00,60.00,Sunday
7,30.300000000000006
8,27.371974616589325
9,27.24408998901137
96,76.83034967690586
2,1, 1, 1, 0,11, 0.00,60.00,Sunday
7,30.7875
8,29.256053961713417
9,29.087592811276229
96,68.99842788503455
2,1, 1, 1, 0,12, 0.00,60.00,Sunday
7,31.275
8,30.989093543297757
9,30.784446113436898
96,62.55437078059497
2,1, 1, 1, 0,13, 0.00,60.00,Sunday
7,31.625000000000005
8,32.59270170137246
9,32.35631119489009
96,57.18032167512001
2,1, 1, 1, 0,14, 0.00,60.00,Sunday
7,31.1375
8,33.892637689351229
9,33.69897833120827
96,52.98351805565586
2,1, 1, 1, 0,15, 0.00,60.00,Sunday
7,30.6125
8,34.48938192865089
9,34.419873921334438
96,50.85878232884984
2,1, 1, 1, 0,16, 0.00,60.00,Sunday
7,29.9375
8,34.26049601566429
9,34.298938037846
96,51.187005393006277
2,1, 1, 1, 0,17, 0.00,60.00,Sunday
7,29.1
8,33.37124273768774
9,33.497686116110568
96,53.5312748203589
2,1, 1, 1, 0,18, 0.00,60.00,Sunday
7,28.237499999999998
8,31.986886457205615
9,32.13587260928975
96,57.82127156363302
2,1, 1, 1, 0,19, 0.00,60.00,Sunday
7,27.7125
8,30.465525216397944
9,30.61439972806034
96,63.068714178182677
2,1, 1, 1, 0,20, 0.00,60.00,Sunday
7,27.475
8,29.104984148710679
9,29.23858899060421
96,68.28883457745192
2,1, 1, 1, 0,21, 0.00,60.00,Sunday
7,27.4
8,27.985678715393918
9,28.093030893649876
96,73.00971411796982
2,1, 1, 1, 0,22, 0.00,60.00,Sunday
7,27.2125
8,27.05824742050368
9,27.157038602699396
96,77.12213564471588
2,1, 1, 1, 0,23, 0.00,60.00,Sunday
7,26.975
8,26.271906031094085
9,26.367884719664706
96,80.75384278549811
2,1, 1, 1, 0,24, 0.00,60.00,Sunday
7,26.8375
8,25.608749883933755
9,25.701576409735929
96,83.94806865159241
2,2, 1, 2, 0, 1, 0.00,60.00,Monday
7,26.675000000000006
8,25.04578189439594
9,25.13778071606626
96,86.76608488655632
2,2, 1, 2, 0, 2, 0.00,60.00,Monday
7,26.6
8,24.567334961210109
9,24.65586343856474
96,89.26052187317764
2,2, 1, 2, 0, 3, 0.00,60.00,Monday
7,26.475
8,24.160398247401735
9,24.246995365024199
96,91.46357780272922
2,2, 1, 2, 0, 4, 0.00,60.00,Monday
7,26.3375
8,23.811848582032355
9,23.90085629955709
96,93.39872047396936
2,2, 1, 2, 0, 5, 0.00,60.00,Monday
7,26.3
8,23.51510389023012
9,23.605670423774943
96,95.12670836519776
2,2, 1, 2, 0, 6, 0.00,60.00,Monday
7,26.2375
8,23.30333772778781
9,23.383231091814204
96,96.46900467789132
2,2, 1, 2, 0, 7, 0.00,60.00,Monday
7,27.45
8,23.479641009474837
9,23.527442636682545
96,95.6716780033962
2,2, 1, 2, 0, 8, 0.00,60.00,Monday
7,28.324999999999997
8,24.284183839076215
9,24.256653318660697
96,91.6229437835357
2,2, 1, 2, 0, 9, 0.00,60.00,Monday
7,28.65
8,25.67693479851624
9,25.603553915088257
96,84.60459863142676
2,2, 1, 2, 0,10, 0.00,60.00,Monday
7,29.799999999999998
8,27.378606789682878
9,27.263262569928587
96,76.73354605154518
2,2, 1, 2, 0,11, 0.00,60.00,Monday
7,30.525
8,29.233642696853396
9,29.071874868718127
96,69.05483963112232
2,2, 1, 2, 0,12, 0.00,60.00,Monday
7,31.1625
8,31.051674281109187
9,30.843289419874908
96,62.34165367799713
2,2, 1, 2, 0,13, 0.00,60.00,Monday
7,31.1875
8,32.639026194151799
9,32.41594940555446
96,56.97618186966153
2,2, 1, 2, 0,14, 0.00,60.00,Monday
7,30.6875
8,33.76862542179408
9,33.58848635134794
96,53.30130995937554
2,2, 1, 2, 0,15, 0.00,60.00,Monday
7,30.25
8,34.35411718531769
9,34.25076273401145
96,51.33757868276664
2,2, 1, 2, 0,16, 0.00,60.00,Monday
7,29.5375
8,34.25634518576623
9,34.268253252485887
96,51.279977613264268
2,2, 1, 2, 0,17, 0.00,60.00,Monday
7,28.6375
8,33.40015900513205
9,33.51997968549803
96,53.47537056007541
2,2, 1, 2, 0,18, 0.00,60.00,Monday
7,27.925
8,32.020171810266699
9,32.16212327137349
96,57.73923429048526
2,2, 1, 2, 0,19, 0.00,60.00,Monday
7,27.45
8,30.504708616236827
9,30.65031039832717
96,62.935596780348927
2,2, 1, 2, 0,20, 0.00,60.00,Monday
7,27.175000000000006
8,29.138367764137784
9,29.270177830683445
96,68.14070858026699
2,2, 1, 2, 0,21, 0.00,60.00,Monday
7,26.9125
8,28.00073117495231
9,28.109217467592715
96,72.89630150641227
2,2, 1, 2, 0,22, 0.00,60.00,Monday
7,26.8
8,27.04557904174013
9,27.146377673697374
96,77.12693945758476
2,2, 1, 2, 0,23, 0.00,60.00,Monday
7,26.8
8,26.238550996378306
9,26.335779976134483
96,80.87723517161304
2,2, 1, 2, 0,24, 0.00,60.00,Monday
7,26.6125
8,25.55038143704841
9,25.647811412069897
96,84.2020813621658
2,3, 1, 3, 0, 1, 0.00,60.00,Tuesday
7,26.5
8,24.963361641107974
9,25.060145558383455
96,87.15988388084164
2,3, 1, 3, 0, 2, 0.00,60.00,Tuesday
7,26.25
8,24.451105724476816
9,24.552233297143507
96,89.79568630962908
2,3, 1, 3, 0, 3, 0.00,60.00,Tuesday
7,25.7875
8,23.984738381633116
9,24.093576373282795
96,92.2711081329704
2,3, 1, 3, 0, 4, 0.00,60.00,Tuesday
7,25.4125
8,23.547117915269355
9,23.664165556062878
96,94.71016520852193
2,3, 1, 3, 0, 5, 0.00,60.00,Tuesday
7,24.675
8,23.115509211046029
9,23.24508969762104
96,97.17716861869799
2,3, 1, 3, 0, 6, 0.00,60.00,Tuesday
7,24.3
8,22.74891102513259
9,22.864347174731415
96,99.47963731137704
2,3, 1, 3, 0, 7, 0.00,60.00,Tuesday
7,26.3
8,22.83982133044511
9,22.907663950034924
96,99.26568237294451
2,3, 1, 3, 0, 8, 0.00,60.00,Tuesday
7,28.125
8,23.636007933580886
9,23.62901515694951
96,95.099140261543
2,3, 1, 3, 0, 9, 0.00,60.00,Tuesday
7,29.375
8,25.182646657016805
9,25.12897940312555
96,87.00471644713397
2,3, 1, 3, 0,10, 0.00,60.00,Tuesday
7,29.9625
8,27.131249514018486
9,27.03259415318633
96,77.76991462131156
2,3, 1, 3, 0,11, 0.00,60.00,Tuesday
7,30.25
8,29.14233452578415
9,28.998170608586528
96,69.32777772718572
2,3, 1, 3, 0,12, 0.00,60.00,Tuesday
7,30.8375
8,31.024537235109979
9,30.837151455660803
96,62.341398916917558
2,3, 1, 3, 0,13, 0.00,60.00,Tuesday
7,30.475
8,32.675677570707467
9,32.46263309974317
96,56.81202349684597
2,3, 1, 3, 0,14, 0.00,60.00,Tuesday
7,30.6
8,33.978158764804778
9,33.7956340808305
96,52.67256523311647
2,3, 1, 3, 0,15, 0.00,60.00,Tuesday
7,30.525
8,34.65645019649745
9,34.577063187640437
96,50.395434281966789
2,3, 1, 3, 0,16, 0.00,60.00,Tuesday
7,29.925
8,34.53180332392209
9,34.55801726208316
96,50.435172055470967
2,3, 1, 3, 0,17, 0.00,60.00,Tuesday
7,29.199999999999997
8,33.66938038962158
9,33.78827700294843
96,52.648342003763477
2,3, 1, 3, 0,18, 0.00,60.00,Tuesday
7,28.275
8,32.27945026251145
9,32.42122572750645
96,56.867919997921159
2,3, 1, 3, 0,19, 0.00,60.00,Tuesday
7,27.65
8,30.734226354590196
9,30.879397382832886
96,62.08957804470573
2,3, 1, 3, 0,20, 0.00,60.00,Tuesday
7,27.312500000000005
8,29.3361641900755
9,29.467914704221337
96,67.35052598043449
2,3, 1, 3, 0,21, 0.00,60.00,Tuesday
7,27.2625
8,28.168811020220628
9,28.276318564196659
96,72.18611843877814
2,3, 1, 3, 0,22, 0.00,60.00,Tuesday
7,27.1125
8,27.20203725412009
9,27.30016845332933
96,76.43010051248997
2,3, 1, 3, 0,23, 0.00,60.00,Tuesday
7,26.9375
8,26.39048041077056
9,26.486359512889924
96,80.16425589494057
2,3, 1, 3, 0,24, 0.00,60.00,Tuesday
7,26.7125
8,25.695383393891289
9,25.792027697891
96,83.48837445199014
2,4, 1, 4, 0, 1, 0.00,60.00,Wednesday
7,26.475
8,25.09180188671582
9,25.189947052824903
96,86.47281952416862
2,4, 1, 4, 0, 2, 0.00,60.00,Wednesday
7,26.3375
8,24.56996718697274
9,24.668245819212044
96,89.1484369180161
2,4, 1, 4, 0, 3, 0.00,60.00,Wednesday
7,26.1125
8,24.11201153327005
9,24.21343836448159
96,91.59384485321657
2,4, 1, 4, 0, 4, 0.00,60.00,Wednesday
7,25.187500000000005
8,23.667342549529669
9,23.7840123876113
96,94.00859301286659
2,4, 1, 4, 0, 5, 0.00,60.00,Wednesday
7,25.075
8,23.23465713122037
9,23.357170267107386
96,96.49259349244589
2,4, 1, 4, 0, 6, 0.00,60.00,Wednesday
7,24.737499999999998
8,22.891587159935228
9,22.99773608646027
96,98.6435285014112
2,4, 1, 4, 0, 7, 0.00,60.00,Wednesday
7,26.4625
8,23.02142504078874
9,23.08248547920616
96,98.20662978150617
2,4, 1, 4, 0, 8, 0.00,60.00,Wednesday
7,28.7
8,23.862224768224995
9,23.848276238600606
96,93.85917131121022
2,4, 1, 4, 0, 9, 0.00,60.00,Wednesday
7,29.487500000000006
8,25.396468267561205
9,25.32927806082084
96,85.97859789317073
2,4, 1, 4, 0,10, 0.00,60.00,Wednesday
7,30.1625
8,27.269988904948748
9,27.155179897702646
96,77.20775493163299
2,4, 1, 4, 0,11, 0.00,60.00,Wednesday
7,31.0625
8,29.269114030577059
9,29.105114565412696
96,68.89927440540206
2,4, 1, 4, 0,12, 0.00,60.00,Wednesday
7,31.0875
8,31.174329314899326
9,30.96909479928505
96,61.86259231671959
2,4, 1, 4, 0,13, 0.00,60.00,Wednesday
7,30.9
8,32.80742985580614
9,32.5839372574424
96,56.39755393500593
2,4, 1, 4, 0,14, 0.00,60.00,Wednesday
7,31.0875
8,34.09832152420378
9,33.90526249555907
96,52.326775347252098
2,4, 1, 4, 0,15, 0.00,60.00,Wednesday
7,30.6375
8,34.80428514179199
9,34.72212277149314
96,49.9628291403876
2,4, 1, 4, 0,16, 0.00,60.00,Wednesday
7,30.1125
8,34.64231118339199
9,34.684380278504978
96,50.045414692653647
2,4, 1, 4, 0,17, 0.00,60.00,Wednesday
7,29.125
8,33.71099730851191
9,33.84283359153062
96,52.454172913490619
2,4, 1, 4, 0,18, 0.00,60.00,Wednesday
7,28.1625
8,32.25885920396027
9,32.41080435779404
96,56.87237273098498
2,4, 1, 4, 0,19, 0.00,60.00,Wednesday
7,27.775
8,30.672615704856797
9,30.823307853330677
96,62.2543444830592
2,4, 1, 4, 0,20, 0.00,60.00,Wednesday
7,27.637500000000004
8,29.291742219337146
9,29.422411009237096
96,67.49887853883438
2,4, 1, 4, 0,21, 0.00,60.00,Wednesday
7,27.475
8,28.158162480004383
9,28.265317434155287
96,72.20573467132954
2,4, 1, 4, 0,22, 0.00,60.00,Wednesday
7,27.4625
8,27.21777289758942
9,27.314664524200994
96,76.34861781961213
2,4, 1, 4, 0,23, 0.00,60.00,Wednesday
7,27.312500000000005
8,26.435819147533168
9,26.52942017754463
96,79.95761860862412
2,4, 1, 4, 0,24, 0.00,60.00,Wednesday
7,26.95
8,25.766916617484115
9,25.862168938255914
96,83.15217620287122
2,5, 1, 5, 0, 1, 0.00,60.00,Thursday
7,26.4875
8,25.168835617385154
9,25.269405587742879
96,86.09813421043711
2,5, 1, 5, 0, 2, 0.00,60.00,Thursday
7,26.425
8,24.641918454671346
9,24.741844962060108
96,88.81802873436505
2,5, 1, 5, 0, 3, 0.00,60.00,Thursday
7,25.875
8,24.163778973321166
9,24.27187752308496
96,91.3293528678853
2,5, 1, 5, 0, 4, 0.00,60.00,Thursday
7,25.062499999999998
8,23.69128268947999
9,23.81266219207927
96,93.88775474102121
2,5, 1, 5, 0, 5, 0.00,60.00,Thursday
7,24.675000000000006
8,23.224487237418665
9,23.35441916628931
96,96.56557516494718
2,5, 1, 5, 0, 6, 0.00,60.00,Thursday
7,24.6
8,22.835560048521079
9,22.951933378136866
96,98.99902210666852
2,5, 1, 5, 0, 7, 0.00,60.00,Thursday
7,25.7875
8,22.850675549160838
9,22.916387907850635
96,99.27364293500466
2,5, 1, 5, 0, 8, 0.00,60.00,Thursday
7,27.75
8,23.643935292077875
9,23.628740834810729
96,95.15652653458116
2,5, 1, 5, 0, 9, 0.00,60.00,Thursday
7,29.75
8,25.250989328777466
9,25.19543367310503
96,86.6830263772109
2,5, 1, 5, 0,10, 0.00,60.00,Thursday
7,30.687499999999998
8,27.319775045781417
9,27.224309726027806
96,76.90678945074926
2,5, 1, 5, 0,11, 0.00,60.00,Thursday
7,31.1125
8,29.449452063376
9,29.312770608492394
96,68.09559070458907
2,5, 1, 5, 0,12, 0.00,60.00,Thursday
7,31.487500000000006
8,31.35126311146916
9,31.177887728085964
96,61.14898870275641
2,5, 1, 5, 0,13, 0.00,60.00,Thursday
7,31.725
8,33.02913735557843
9,32.81833492580205
96,55.68392001201918
2,5, 1, 5, 0,14, 0.00,60.00,Thursday
7,32.175000000000007
8,34.444397362964448
9,34.24903376576536
96,51.34335793737842
2,5, 1, 5, 0,15, 0.00,60.00,Thursday
7,32.15
8,35.287346459972699
9,35.205401232233239
96,48.64681161896594
2,5, 1, 5, 0,16, 0.00,60.00,Thursday
7,31.187500000000005
8,35.24429028599653
9,35.28062794487921
96,48.438090146169979
2,5, 1, 5, 0,17, 0.00,60.00,Thursday
7,29.887499999999997
8,34.34931160897994
9,34.48280522749247
96,50.645351955146498
2,5, 1, 5, 0,18, 0.00,60.00,Thursday
7,28.65
8,32.873449576844269
9,33.02947467512176
96,54.9485746594145
2,5, 1, 5, 0,19, 0.00,60.00,Thursday
7,27.8875
8,31.246006324671474
9,31.398200754417738
96,60.26907053892187
2,5, 1, 5, 0,20, 0.00,60.00,Thursday
7,27.512499999999997
8,29.792138807474819
9,29.927236480460559
96,65.58783541465346
2,5, 1, 5, 0,21, 0.00,60.00,Thursday
7,27.3375
8,28.580574603297309
9,28.695191502413889
96,70.46609789698269
2,5, 1, 5, 0,22, 0.00,60.00,Thursday
7,27.3
8,27.568286496483517
9,27.668542066348189
96,74.81436923048887
2,5, 1, 5, 0,23, 0.00,60.00,Thursday
7,27.049999999999998
8,26.699750643008757
9,26.79902345475509
96,78.71593786106222
2,5, 1, 5, 0,24, 0.00,60.00,Thursday
7,26.9
8,25.964935277818986
9,26.060974768483918
96,82.17614380602429
2,6, 1, 6, 0, 1, 0.00,60.00,Friday
7,26.9
8,25.35313693103744
9,25.44585456036564
96,85.17736413901939
2,6, 1, 6, 0, 2, 0.00,60.00,Friday
7,26.8375
8,24.843739549557083
9,24.93166027241565
96,87.78553784017756
2,6, 1, 6, 0, 3, 0.00,60.00,Friday
7,26.175
8,24.384759883696935
9,24.484182649309856
96,90.14483103484307
2,6, 1, 6, 0, 4, 0.00,60.00,Friday
7,25.4875
8,23.92670104396235
9,24.040395996653908
96,92.58937009199097
2,6, 1, 6, 0, 5, 0.00,60.00,Friday
7,25.175000000000006
8,23.478028067309393
9,23.598912451794758
96,95.12701000453998
2,6, 1, 6, 0, 6, 0.00,60.00,Friday
7,25.1625
8,23.130171458510895
9,23.230231046654369
96,97.31686288615832
2,6, 1, 6, 0, 7, 0.00,60.00,Friday
7,26.574999999999997
8,23.26098704661262
9,23.31635927925184
96,96.83778777141498
2,6, 1, 6, 0, 8, 0.00,60.00,Friday
7,27.9625
8,24.108250658877794
9,24.090695875278749
96,92.44876594136483
2,6, 1, 6, 0, 9, 0.00,60.00,Friday
7,29.55
8,25.57104289342335
9,25.513200607361904
96,84.95359385348934
2,6, 1, 6, 0,10, 0.00,60.00,Friday
7,30.425
8,27.40200050882176
9,27.29491687839453
96,76.48421651712934
2,6, 1, 6, 0,11, 0.00,60.00,Friday
7,31.562500000000005
8,29.327646544380909
9,29.173700529878496
96,68.54571490675937
2,6, 1, 6, 0,12, 0.00,60.00,Friday
7,31.699999999999997
8,31.166412911302868
9,30.96056539273031
96,61.82378641994584
2,6, 1, 6, 0,13, 0.00,60.00,Friday
7,31.3375
8,32.75112642004689
9,32.52890726354444
96,56.512782086943179
2,6, 1, 6, 0,14, 0.00,60.00,Friday
7,31.362499999999998
8,33.95539785877236
9,33.771227086712269
96,52.65900516515203
2,6, 1, 6, 0,15, 0.00,60.00,Friday
7,30.7125
8,34.51775767200416
9,34.44129818702533
96,50.70168373452976
2,6, 1, 6, 0,16, 0.00,60.00,Friday
7,29.737499999999998
8,34.225798196012039
9,34.26264704068939
96,51.2058466919145
2,6, 1, 6, 0,17, 0.00,60.00,Friday
7,29.025
8,33.243423239438147
9,33.36941956013027
96,53.8389746290368
2,6, 1, 6, 0,18, 0.00,60.00,Friday
7,28.3
8,31.83964483448399
9,31.983383446981958
96,58.23650932197886
2,6, 1, 6, 0,19, 0.00,60.00,Friday
7,27.812500000000005
8,30.33888876458091
9,30.484235497319088
96,63.464490473496898
2,6, 1, 6, 0,20, 0.00,60.00,Friday
7,27.575
8,28.99777203496964
9,29.129947420925434
96,68.6542200798952
2,6, 1, 6, 0,21, 0.00,60.00,Friday
7,27.625000000000005
8,27.884094645412615
9,27.9889268416523
96,73.40632206852338
2,6, 1, 6, 0,22, 0.00,60.00,Friday
7,27.7
8,26.991870339407219
9,27.085656831279726
96,77.420720078079
2,6, 1, 6, 0,23, 0.00,60.00,Friday
7,27.575
8,26.273230047179078
9,26.361436628577473
96,80.78752658965712
2,6, 1, 6, 0,24, 0.00,60.00,Friday
7,27.5
8,25.679746894560588
9,25.762489526634498
96,83.67673856233557
2,7, 1, 7, 0, 1, 0.00,60.00,Saturday
7,27.312500000000005
8,25.183831486646949
9,25.263080860557947
96,86.13108701493712
2,7, 1, 7, 0, 2, 0.00,60.00,Saturday
7,27.075
8,24.754082219684606
9,24.836867112396694
96,88.28591038798489
2,7, 1, 7, 0, 3, 0.00,60.00,Saturday
7,26.9375
8,24.376485362381929
9,24.461954953003823
96,90.26383349824089
2,7, 1, 7, 0, 4, 0.00,60.00,Saturday
7,26.9
8,24.05171425086681
9,24.13898553457083
96,92.04134091873002
2,7, 1, 7, 0, 5, 0.00,60.00,Saturday
7,26.9625
8,23.787465574460886
9,23.874890615519968
96,93.54621926413155
2,7, 1, 7, 0, 6, 0.00,60.00,Saturday
7,27.0
8,23.6520939116337
9,23.72114771532407
96,94.45814119440712
2,7, 1, 7, 0, 7, 0.00,60.00,Saturday
7,27.750000000000005
8,23.9473511470075
9,23.987454989905829
96,92.99590936418453
2,7, 1, 7, 0, 8, 0.00,60.00,Saturday
7,28.825
8,24.833738061602028
9,24.804766548070984
96,88.60179939949409
2,7, 1, 7, 0, 9, 0.00,60.00,Saturday
7,29.3875
8,26.250975179453556
9,26.18660149697158
96,81.66409555237689
2,7, 1, 7, 0,10, 0.00,60.00,Saturday
7,29.875
8,27.93666868204059
9,27.833564120846217
96,74.13868227203112
2,7, 1, 7, 0,11, 0.00,60.00,Saturday
7,30.35
8,29.65654895295244
9,29.5157958823432
96,67.22855444505376
2,7, 1, 7, 0,12, 0.00,60.00,Saturday
7,31.312499999999998
8,31.322666830470554
9,31.12986705915264
96,61.26544959678852
2,7, 1, 7, 0,13, 0.00,60.00,Saturday
7,31.425
8,32.915430320626658
9,32.68943238605561
96,56.04495712314155
2,7, 1, 7, 0,14, 0.00,60.00,Saturday
7,31.2625
8,34.20310411574367
9,34.01712023320997
96,51.98257470296356
2,7, 1, 7, 0,15, 0.00,60.00,Saturday
7,30.925
8,34.85239510435778
9,34.78151298468287
96,49.784648771596049
2,7, 1, 7, 0,16, 0.00,60.00,Saturday
7,29.95
8,34.65108637268675
9,34.690774622748708
96,50.02729320944297
2,7, 1, 7, 0,17, 0.00,60.00,Saturday
7,28.9375
8,33.66976428228534
9,33.79888781381844
96,52.59064616000845
2,7, 1, 7, 0,18, 0.00,60.00,Saturday
7,28.1
8,32.18797466945968
9,32.33494273992376
96,57.11495760474198
2,7, 1, 7, 0,19, 0.00,60.00,Saturday
7,27.549999999999998
8,30.61206379096785
9,30.755948010393796
96,62.48366882226739
2,7, 1, 7, 0,20, 0.00,60.00,Saturday
7,27.2125
8,29.22617822128083
9,29.353973100184296
96,67.73572173071749
2,7, 1, 7, 0,21, 0.00,60.00,Saturday
7,26.975
8,28.08132641374878
9,28.186986882576965
96,72.48344098863136
2,7, 1, 7, 0,22, 0.00,60.00,Saturday
7,26.9
8,27.121732961389477
9,27.220359816838806
96,76.69214082231759
2,7, 1, 7, 0,23, 0.00,60.00,Saturday
7,26.8375
8,26.303429779033658
9,26.40032391114691
96,80.47832748897844
2,7, 1, 7, 0,24, 0.00,60.00,Saturday
7,26.8
8,25.6173202672207
9,25.710017540108436
96,83.80853006621082
2,8, 1, 8, 0, 1, 0.00,60.00,Sunday
7,26.8
8,25.049958762463669
9,25.138369791047596
96,86.66828205512268
2,8, 1, 8, 0, 2, 0.00,60.00,Sunday
7,26.675000000000006
8,24.577726545325868
9,24.66272874658683
96,89.13743122644103
2,8, 1, 8, 0, 3, 0.00,60.00,Sunday
7,26.5375
8,24.177506265614789
9,24.26260941070756
96,91.26780014085738
2,8, 1, 8, 0, 4, 0.00,60.00,Sunday
7,26.625000000000005
8,23.841090691075949
9,23.927366874587248
96,93.1434108744895
2,8, 1, 8, 0, 5, 0.00,60.00,Sunday
7,26.45
8,23.54826938599696
9,23.64039519184164
96,94.8337563825071
2,8, 1, 8, 0, 6, 0.00,60.00,Sunday
7,25.424999999999998
8,23.295449361096009
9,23.386099193347556
96,96.36887186640334
2,8, 1, 8, 0, 7, 0.00,60.00,Sunday
7,26.2125
8,23.390268008712896
9,23.445166511274175
96,96.08793616269023
2,8, 1, 8, 0, 8, 0.00,60.00,Sunday
7,28.062500000000005
8,24.159284098820196
9,24.139070280950933
96,92.21537984642802
2,8, 1, 8, 0, 9, 0.00,60.00,Sunday
7,29.137499999999997
8,25.63447546114599
9,25.568911226718315
96,84.72062446363822
2,8, 1, 8, 0,10, 0.00,60.00,Sunday
7,30.025
8,27.505472911582339
9,27.397267893825594
96,76.07026685981526
2,8, 1, 8, 0,11, 0.00,60.00,Sunday
7,30.8375
8,29.41770002031075
9,29.275190667192104
96,68.18476380066105
2,8, 1, 8, 0,12, 0.00,60.00,Sunday
7,31.0375
8,31.152451423882864
9,30.96452838109634
96,61.865518104679498
2,8, 1, 8, 0,13, 0.00,60.00,Sunday
7,31.0
8,32.77780181655345
9,32.55436390761177
96,56.49929736614664
2,8, 1, 8, 0,14, 0.00,60.00,Sunday
7,30.9375
8,34.043167279245157
9,33.867160723052858
96,52.44090826072488
2,8, 1, 8, 0,15, 0.00,60.00,Sunday
7,30.65
8,34.64057541266289
9,34.58102905884543
96,50.360913577198527
2,8, 1, 8, 0,16, 0.00,60.00,Sunday
7,30.25
8,34.41845276058282
9,34.4753357631549
96,50.65522623292672
2,8, 1, 8, 0,17, 0.00,60.00,Sunday
7,29.225
8,33.4977141916989
9,33.641923842637357
96,53.07559087121146
2,8, 1, 8, 0,18, 0.00,60.00,Sunday
7,28.1375
8,32.095708560139289
9,32.25152323647609
96,57.40591472824649
2,8, 1, 8, 0,19, 0.00,60.00,Sunday
7,27.675000000000006
8,30.5552113715069
9,30.706046672183669
96,62.70581043489405
2,8, 1, 8, 0,20, 0.00,60.00,Sunday
7,27.5375
8,29.203781385698084
9,29.33435868271996
96,67.88477814742189
2,8, 1, 8, 0,21, 0.00,60.00,Sunday
7,27.374999999999998
8,28.0745980310249
9,28.179979111114226
96,72.6263642383633
2,8, 1, 8, 0,22, 0.00,60.00,Sunday
7,27.175000000000006
8,27.11301793319287
9,27.213620743585794
96,76.8596337275828
2,8, 1, 8, 0,23, 0.00,60.00,Sunday
7,27.225
8,26.319545985324877
9,26.41311512149379
96,80.56066829721596
2,8, 1, 8, 0,24, 0.00,60.00,Sunday
7,27.1125
8,25.669249125175477
9,25.758528705844609
96,83.73246153462374
2,9, 1, 9, 0, 1, 0.00,60.00,Monday
7,26.9375
8,25.124931981053089
9,25.21200766798844
96,86.46898805192788
2,9, 1, 9, 0, 2, 0.00,60.00,Monday
7,26.7125
8,24.65756964521583
9,24.743560550810824
96,88.87655679746573
2,9, 1, 9, 0, 3, 0.00,60.00,Monday
7,26.6625
8,24.255988468229807
9,24.34170126256285
96,91.02143775429306
2,9, 1, 9, 0, 4, 0.00,60.00,Monday
7,26.575
8,23.91356105516344
9,24.001515311141874
96,92.92071975972798
2,9, 1, 9, 0, 5, 0.00,60.00,Monday
7,25.5625
8,23.564769945058975
9,23.674154632850944
96,94.80637041431437
2,9, 1, 9, 0, 6, 0.00,60.00,Monday
7,24.562499999999998
8,23.224547848760574
9,23.329994270261765
96,96.86199399033701
2,9, 1, 9, 0, 7, 0.00,60.00,Monday
7,25.55
8,23.280233356944959
9,23.33959718170698
96,96.89231643279126
2,9, 1, 9, 0, 8, 0.00,60.00,Monday
7,26.6125
8,23.910767930678035
9,23.922342659761357
96,93.61939624354005
2,9, 1, 9, 0, 9, 0.00,60.00,Monday
7,27.799999999999998
8,25.08846546576573
9,25.008780180860428
96,87.77668532249939
2,9, 1, 9, 0,10, 0.00,60.00,Monday
7,29.2125
8,26.810581935773038
9,26.685668792709675
96,79.49413416964032
2,9, 1, 9, 0,11, 0.00,60.00,Monday
7,30.262500000000004
8,28.765607892983888
9,28.597687546048556
96,71.05529162284988
2,9, 1, 9, 0,12, 0.00,60.00,Monday
7,31.1
8,30.62333300174322
9,30.411853264690455
96,63.96880908116199
2,9, 1, 9, 0,13, 0.00,60.00,Monday
7,31.5875
8,32.44170487137853
9,32.19296653921181
96,57.77895652614464
2,9, 1, 9, 0,14, 0.00,60.00,Monday
7,31.075
8,33.93255925614865
9,33.73521416407553
96,52.94059992275203
2,9, 1, 9, 0,15, 0.00,60.00,Monday
7,30.824999999999997
8,34.67032999375666
9,34.61402991497774
96,50.36496986253976
2,9, 1, 9, 0,16, 0.00,60.00,Monday
7,30.7125
8,34.579815441654378
9,34.63996550712789
96,50.274037154727228
2,9, 1, 9, 0,17, 0.00,60.00,Monday
7,29.475
8,33.75161355594054
9,33.90453349606247
96,52.38421149839252
2,9, 1, 9, 0,18, 0.00,60.00,Monday
7,28.175
8,32.33019780165462
9,32.4947197183328
96,56.71532270283973
2,9, 1, 9, 0,19, 0.00,60.00,Monday
7,27.675000000000006
8,30.732163909138668
9,30.890088337523296
96,62.15094701773625
2,9, 1, 9, 0,20, 0.00,60.00,Monday
7,27.475
8,29.320557606834826
9,29.456952313851557
96,67.5279080519272
2,9, 1, 9, 0,21, 0.00,60.00,Monday
7,27.4
8,28.16668768470674
9,28.27565589213506
96,72.34611195145185
2,9, 1, 9, 0,22, 0.00,60.00,Monday
7,27.3375
8,27.21175216204557
9,27.31068880752304
96,76.54951255600077
2,9, 1, 9, 0,23, 0.00,60.00,Monday
7,27.362499999999998
8,26.421500169514258
9,26.514197651903666
96,80.22194837113
2,9, 1, 9, 0,24, 0.00,60.00,Monday
7,27.4
8,25.779437414219989
9,25.865027873199258
96,83.3333623658008
2,10, 1,10, 0, 1, 0.00,60.00,Tuesday
7,27.2125
8,25.24995387542678
9,25.332448205435964
96,85.95461510980921
2,10, 1,10, 0, 2, 0.00,60.00,Tuesday
7,27.0375
8,24.79742265026711
9,24.879540371054977
96,88.27044389512601
2,10, 1,10, 0, 3, 0.00,60.00,Tuesday
7,27.0625
8,24.417725982048279
9,24.499107484803717
96,90.26453554703295
2,10, 1,10, 0, 4, 0.00,60.00,Tuesday
7,27.1625
8,24.113540177152119
9,24.194654729173267
96,91.89705739867827
2,10, 1,10, 0, 5, 0.00,60.00,Tuesday
7,27.012499999999997
8,23.858675446779249
9,23.94423146660256
96,93.31095964293135
2,10, 1,10, 0, 6, 0.00,60.00,Tuesday
7,26.5875
8,23.620014523861785
9,23.71167177771246
96,94.68395917449976
2,10, 1,10, 0, 7, 0.00,60.00,Tuesday
7,26.3375
8,23.512873793302444
9,23.582152866032588
96,95.52051072091399
2,10, 1,10, 0, 8, 0.00,60.00,Tuesday
7,26.8625
8,24.00292847686032
9,24.01544603116843
96,93.15259764303326
2,10, 1,10, 0, 9, 0.00,60.00,Tuesday
7,26.45
8,24.8698149714793
9,24.84125490717525
96,88.7168450073233
2,10, 1,10, 0,10, 0.00,60.00,Tuesday
7,25.249999999999998
8,25.637635369939536
9,25.61128135634638
96,84.75270903885894
2,10, 1,10, 0,11, 0.00,60.00,Tuesday
7,27.3
8,26.224691119154025
9,26.197439880903369
96,81.81163911032033
2,10, 1,10, 0,12, 0.00,60.00,Tuesday
7,29.612500000000006
8,27.532617582943723
9,27.322150413394505
96,76.56184643362451
2,10, 1,10, 0,13, 0.00,60.00,Tuesday
7,30.1625
8,29.18130823362228
9,28.961448838020087
96,69.54540512305684
2,10, 1,10, 0,14, 0.00,60.00,Tuesday
7,29.8875
8,30.575315269615588
9,30.368003348613358
96,64.0741052107866
2,10, 1,10, 0,15, 0.00,60.00,Tuesday
7,29.2625
8,31.418686980856586
9,31.302346247827754
96,60.68358398406414
2,10, 1,10, 0,16, 0.00,60.00,Tuesday
7,28.9375
8,31.514997300523754
9,31.486159149260886
96,60.02904138821522
2,10, 1,10, 0,17, 0.00,60.00,Tuesday
7,28.525
8,31.03880716182615
9,31.076012435930058
96,61.45443436395555
2,10, 1,10, 0,18, 0.00,60.00,Tuesday
7,27.925
8,30.092611019978393
9,30.180221055148779
96,64.71759626543312
2,10, 1,10, 0,19, 0.00,60.00,Tuesday
7,27.575
8,28.95652513523587
9,29.06004615708199
96,69.06211035516943
2,10, 1,10, 0,20, 0.00,60.00,Tuesday
7,27.4375
8,27.88744231620632
9,27.991265717551046
96,73.53613161834839
2,10, 1,10, 0,21, 0.00,60.00,Tuesday
7,27.2125
8,26.968509796696606
9,27.069391333619053
96,77.64926064008327
2,10, 1,10, 0,22, 0.00,60.00,Tuesday
7,27.1625
8,26.202320765422909
9,26.298803392700188
96,81.26335377482451
2,10, 1,10, 0,23, 0.00,60.00,Tuesday
7,27.137500000000004
8,25.574148667573757
9,25.663990349097113
96,84.3592757096767
2,10, 1,10, 0,24, 0.00,60.00,Tuesday
7,27.1
8,25.06399265424716
9,25.14476376900103
96,86.95414268733888
2,11, 1,11, 0, 1, 0.00,60.00,Wednesday
7,27.1
8,24.653915752429336
9,24.730854037346103
96,89.07011828689406
2,11, 1,11, 0, 2, 0.00,60.00,Wednesday
7,26.975
8,24.3221866831996
9,24.399057337789679
96,90.80081381621915
2,11, 1,11, 0, 3, 0.00,60.00,Wednesday
7,26.7125
8,24.031602900514579
9,24.112649347932405
96,92.33549028125938
2,11, 1,11, 0, 4, 0.00,60.00,Wednesday
7,26.6625
8,23.766530174629403
9,23.850668027252575
96,93.77797606665694
2,11, 1,11, 0, 5, 0.00,60.00,Wednesday
7,26.637500000000004
8,23.540497321352875
9,23.626072611097436
96,95.0529165836835
2,11, 1,11, 0, 6, 0.00,60.00,Wednesday
7,26.2875
8,23.34319363259369
9,23.43076512399449
96,96.22395994425905
2,11, 1,11, 0, 7, 0.00,60.00,Wednesday
7,25.35
8,23.144503767346135
9,23.243915230530008
96,97.39561396162897
2,11, 1,11, 0, 8, 0.00,60.00,Wednesday
7,26.0875
8,23.02753086382713
9,23.08589483670041
96,98.38146665813571
2,11, 1,11, 0, 9, 0.00,60.00,Wednesday
7,28.112499999999998
8,23.97006170556304
9,23.87124762402155
96,93.87959090145468
2,11, 1,11, 0,10, 0.00,60.00,Wednesday
7,29.65
8,25.952359435073534
9,25.796417943878884
96,83.70371735123347
2,11, 1,11, 0,11, 0.00,60.00,Wednesday
7,30.6
8,28.178501755111623
9,27.992855855344538
96,73.55153938173135
2,11, 1,11, 0,12, 0.00,60.00,Wednesday
7,30.9
8,30.28021244140513
9,30.06966531034029
96,65.17975480179267
2,11, 1,11, 0,13, 0.00,60.00,Wednesday
7,30.8375
8,32.120746033069398
9,31.90704737391008
96,58.63531656431847
2,11, 1,11, 0,14, 0.00,60.00,Wednesday
7,30.987500000000006
8,33.585410608362888
9,33.408352971251449
96,53.824329681918218
2,11, 1,11, 0,15, 0.00,60.00,Wednesday
7,30.725
8,34.36479911758861
9,34.31027324834143
96,51.13048718238186
2,11, 1,11, 0,16, 0.00,60.00,Wednesday
7,30.25
8,34.243554460122
9,34.31473539787495
96,51.09275342788919
2,11, 1,11, 0,17, 0.00,60.00,Wednesday
7,29.4125
8,33.3678417853793
9,33.52740200853358
96,53.38635515326712
2,11, 1,11, 0,18, 0.00,60.00,Wednesday
7,28.0625
8,31.978902185358519
9,32.13965897431575
96,57.75720223223264
2,11, 1,11, 0,19, 0.00,60.00,Wednesday
7,27.374999999999998
8,30.428885444741846
9,30.58314866312508
96,63.152148678357239
2,11, 1,11, 0,20, 0.00,60.00,Wednesday
7,27.2375
8,29.055819606144945
9,29.18867572069219
96,68.47414134818233
2,11, 1,11, 0,21, 0.00,60.00,Wednesday
7,27.012499999999997
8,27.9199304731549
9,28.028531155303808
96,73.28718043780525
2,11, 1,11, 0,22, 0.00,60.00,Wednesday
7,26.9
8,26.970038230415935
9,27.068875725248277
96,77.53484256165049
2,11, 1,11, 0,23, 0.00,60.00,Wednesday
7,26.9
8,26.17889462450325
9,26.27329428049981
96,81.2574342433762
2,11, 1,11, 0,24, 0.00,60.00,Wednesday
7,26.8375
8,25.52111161500006
9,25.611908314914119
96,84.47628605427554