Program Version,EnergyPlus, Version 8.9.0-40101eaafd, YMD=2025.08.26 04:54
1,5,Environment Title[],Latitude[deg],Longitude[deg],Time Zone[],Elevation[m]
2,8,Day of Simulation[],Month[],Day of Month[],DST Indicator[1=yes 0=no],Hour[],StartMinute[],EndMinute[],DayType
3,5,Cumulative Day of Simulation[],Month[],Day of Month[],DST Indicator[1=yes 0=no],DayType  ! When Daily Report Variables Requested
4,2,Cumulative Days of Simulation[],Month[]  ! When Monthly Report Variables Requested
5,1,Cumulative Days of Simulation[] ! When Run Period Report Variables Requested
6,1,Calendar Year of Simulation[] ! When Annual Report Variables Requested
7,1,Environment,Site Outdoor Air Drybulb Temperature [C] !Hourly
8,1,ZONE DEFAULT,Zone Mean Radiant Temperature [C] !Hourly
9,1,ZONE DEFAULT,Zone Mean Air Temperature [C] !Hourly
96,1,ZONE DEFAULT,Zone Air Relative Humidity [%] !Hourly
End of Data Dictionary
1,TROPOS3D MODEL,  -3.78, -38.53,  -3.00,  25.00
2,1, 1, 1, 0, 1, 0.00,60.00,Sunday
7,26.75
8,24.877294710410298
9,24.988061328194143
96,84.6130068336062
2,1, 1, 1, 0, 2, 0.00,60.00,Sunday
7,26.0
8,24.408765423981188
9,24.526764753150773
96,86.85822323746749
2,1, 1, 1, 0, 3, 0.00,60.00,Sunday
7,26.0
8,23.979154223236983
9,24.087749336560916
96,89.14014041803611
2,1, 1, 1, 0, 4, 0.00,60.00,Sunday
7,25.812500000000005
8,23.614328605323455
9,23.716871063202903
96,91.1491586525887
2,1, 1, 1, 0, 5, 0.00,60.00,Sunday
7,25.45
8,23.29359767110682
9,23.396190083595039
96,92.92779150797777
2,1, 1, 1, 0, 6, 0.00,60.00,Sunday
7,25.1125
8,23.037585318116489
9,23.12718364611763
96,94.50810718271805
2,1, 1, 1, 0, 7, 0.00,60.00,Sunday
7,25.437500000000005
8,23.17125995030888
9,23.21090697572729
96,94.0683288452231
2,1, 1, 1, 0, 8, 0.00,60.00,Sunday
7,26.075
8,24.168145222788547
9,24.135814212506426
96,89.00082192280664
2,1, 1, 1, 0, 9, 0.00,60.00,Sunday
7,26.7375
8,25.892496188522605
9,25.876939291541747
96,80.2939671718548
2,1, 1, 1, 0,10, 0.00,60.00,Sunday
7,27.625
8,27.65794680655577
9,27.659834547757549
96,72.31461758660675
2,1, 1, 1, 0,11, 0.00,60.00,Sunday
7,28.625
8,29.108002768549939
9,29.064014650596545
96,66.63641393850023
2,1, 1, 1, 0,12, 0.00,60.00,Sunday
7,29.625
8,30.39517825094466
9,30.276252482871898
96,62.14395299643911
2,1, 1, 1, 0,13, 0.00,60.00,Sunday
7,29.812500000000005
8,31.503502332964794
9,31.34336290634534
96,58.47009563827177
2,1, 1, 1, 0,14, 0.00,60.00,Sunday
7,29.45
8,32.4093332300677
9,32.25804546789694
96,55.5145993085265
2,1, 1, 1, 0,15, 0.00,60.00,Sunday
7,29.1125
8,33.20179351649312
9,33.07892721674229
96,53.00967174965406
2,1, 1, 1, 0,16, 0.00,60.00,Sunday
7,28.812500000000005
8,33.78643062026955
9,33.78632625535414
96,50.94842310321156
2,1, 1, 1, 0,17, 0.00,60.00,Sunday
7,28.45
8,33.6016362251284
9,33.76589683183833
96,51.007035122652478
2,1, 1, 1, 0,18, 0.00,60.00,Sunday
7,28.1125
8,32.45462215736089
9,32.753517970829708
96,54.00087215056073
2,1, 1, 1, 0,19, 0.00,60.00,Sunday
7,27.812500000000005
8,30.81541725853131
9,31.07443786927542
96,59.388671944062469
2,1, 1, 1, 0,20, 0.00,60.00,Sunday
7,27.45
8,29.27653000435484
9,29.477474246545236
96,65.0707662239009
2,1, 1, 1, 0,21, 0.00,60.00,Sunday
7,27.1125
8,27.97350602101173
9,28.14129999494281
96,70.29991106523815
2,1, 1, 1, 0,22, 0.00,60.00,Sunday
7,27.187499999999998
8,26.88971597355785
9,27.02450860364683
96,75.03679124390684
2,1, 1, 1, 0,23, 0.00,60.00,Sunday
7,27.55
8,26.02782444708668
9,26.14827015972994
96,79.00639105323282
2,1, 1, 1, 0,24, 0.00,60.00,Sunday
7,27.8875
8,25.384020255136784
9,25.48934639431024
96,82.1993896382169
2,2, 1, 2, 0, 1, 0.00,60.00,Monday
7,27.812500000000005
8,24.90095624811496
9,25.00301161195399
96,84.6423034051794
2,2, 1, 2, 0, 2, 0.00,60.00,Monday
7,27.45
8,24.495781133793149
9,24.606637254122764
96,86.6687254673297
2,2, 1, 2, 0, 3, 0.00,60.00,Monday
7,27.1125
8,24.117412272649035
9,24.239333652158544
96,88.59577526166184
2,2, 1, 2, 0, 4, 0.00,60.00,Monday
7,26.562499999999998
8,23.7588059276611
9,23.890160424095556
96,90.41643469858619
2,2, 1, 2, 0, 5, 0.00,60.00,Monday
7,25.925
8,23.431287230808015
9,23.565779198906684
96,92.1649212577211
2,2, 1, 2, 0, 6, 0.00,60.00,Monday
7,25.2625
8,23.191794568888445
9,23.304597620609376
96,93.62757093327271
2,2, 1, 2, 0, 7, 0.00,60.00,Monday
7,25.812499999999998
8,23.42196227350107
9,23.48817552797716
96,92.59947477259274
2,2, 1, 2, 0, 8, 0.00,60.00,Monday
7,27.175
8,24.316019369578539
9,24.316605486732106
96,88.11821930431656
2,2, 1, 2, 0, 9, 0.00,60.00,Monday
7,28.5125
8,25.99127847160717
9,25.96171779699453
96,79.9712912585598
2,2, 1, 2, 0,10, 0.00,60.00,Monday
7,29.437500000000005
8,27.850326445262146
9,27.807294221742514
96,71.76982835518575
2,2, 1, 2, 0,11, 0.00,60.00,Monday
7,30.075
8,29.47654163635457
9,29.391807422060059
96,65.49858387686405
2,2, 1, 2, 0,12, 0.00,60.00,Monday
7,30.7375
8,31.001999729779926
9,30.84971647973686
96,60.301856139748149
2,2, 1, 2, 0,13, 0.00,60.00,Monday
7,31.0
8,32.29615106150675
9,32.12917388089363
96,56.022890165591537
2,2, 1, 2, 0,14, 0.00,60.00,Monday
7,31.0
8,33.403603978551739
9,33.2027366076649
96,52.665458295682608
2,2, 1, 2, 0,15, 0.00,60.00,Monday
7,31.0
8,34.48634899763796
9,34.36992686776782
96,49.29514009854478
2,2, 1, 2, 0,16, 0.00,60.00,Monday
7,30.375
8,35.00004371541061
9,35.07524907948641
96,47.38081065913048
2,2, 1, 2, 0,17, 0.00,60.00,Monday
7,29.375
8,34.626460807375419
9,34.892714417169127
96,47.86409259837302
2,2, 1, 2, 0,18, 0.00,60.00,Monday
7,28.375
8,33.247593979751069
9,33.67332926285539
96,51.24428572333353
2,2, 1, 2, 0,19, 0.00,60.00,Monday
7,27.812500000000005
8,31.356246076852345
9,31.705235076292863
96,57.249536470978799
2,2, 1, 2, 0,20, 0.00,60.00,Monday
7,27.45
8,29.625204611290056
9,29.88226229304309
96,63.514811196808768
2,2, 1, 2, 0,21, 0.00,60.00,Monday
7,27.1125
8,28.208074892324995
9,28.411011630199519
96,69.18321010938237
2,2, 1, 2, 0,22, 0.00,60.00,Monday
7,26.812500000000005
8,27.064597089290659
9,27.22550226638
96,74.1588109851896
2,2, 1, 2, 0,23, 0.00,60.00,Monday
7,26.45
8,26.144127885766076
9,26.283486943113276
96,78.37940703690035
2,2, 1, 2, 0,24, 0.00,60.00,Monday
7,26.1125
8,25.392937057129836
9,25.519957400623164
96,82.00116507800596
2,3, 1, 3, 0, 1, 0.00,60.00,Tuesday
7,26.0
8,24.774265663478088
9,24.890389153006447
96,85.0243836851505
2,3, 1, 3, 0, 2, 0.00,60.00,Tuesday
7,26.0
8,24.263690806913585
9,24.371941084799425
96,87.63467744792821
2,3, 1, 3, 0, 3, 0.00,60.00,Tuesday
7,26.0
8,23.831124409320695
9,23.937836367403848
96,89.89038192875275
2,3, 1, 3, 0, 4, 0.00,60.00,Tuesday
7,26.0
8,23.446738676383956
9,23.557478448321523
96,91.93736458149455
2,3, 1, 3, 0, 5, 0.00,60.00,Tuesday
7,25.812500000000005
8,23.093881639966374
9,23.21345864387859
96,93.9243307073778
2,3, 1, 3, 0, 6, 0.00,60.00,Tuesday
7,25.45
8,22.84377438927845
9,22.950861291158295
96,95.46229604421237
2,3, 1, 3, 0, 7, 0.00,60.00,Tuesday
7,25.1125
8,23.21852714044014
9,23.31109240068818
96,93.47139296828903
2,3, 1, 3, 0, 8, 0.00,60.00,Tuesday
7,26.875
8,24.31559453429042
9,24.417852039128336
96,87.51346589368879
2,3, 1, 3, 0, 9, 0.00,60.00,Tuesday
7,28.625
8,26.12442050920767
9,26.278041109427414
96,78.37169928342044
2,3, 1, 3, 0,10, 0.00,60.00,Tuesday
7,29.625
8,28.182764989301928
9,28.28698532198404
96,69.66087511801783
2,3, 1, 3, 0,11, 0.00,60.00,Tuesday
7,30.625
8,30.03029854263623
9,30.041715086752008
96,62.97309764855193
2,3, 1, 3, 0,12, 0.00,60.00,Tuesday
7,31.0
8,31.643251379955097
9,31.54077362367624
96,57.75778997136303
2,3, 1, 3, 0,13, 0.00,60.00,Tuesday
7,31.625
8,33.269497272822388
9,33.09779612346381
96,52.86168195067724
2,3, 1, 3, 0,14, 0.00,60.00,Tuesday
7,31.375
8,34.712052966505108
9,34.545590010690279
96,48.75393958478242
2,3, 1, 3, 0,15, 0.00,60.00,Tuesday
7,31.0
8,35.826783602909809
9,35.72870475593837
96,45.665731208081869
2,3, 1, 3, 0,16, 0.00,60.00,Tuesday
7,31.0
8,36.778649226874069
9,36.793400906987518
96,43.048245536766547
2,3, 1, 3, 0,17, 0.00,60.00,Tuesday
7,29.75
8,36.67848767405254
9,36.91826474708816
96,42.73820806634869
2,3, 1, 3, 0,18, 0.00,60.00,Tuesday
7,28.375
8,35.25028037682707
9,35.64878343359
96,45.86672680164624
2,3, 1, 3, 0,19, 0.00,60.00,Tuesday
7,27.375
8,33.17872363230279
9,33.521273220274569
96,51.64192619266993
2,3, 1, 3, 0,20, 0.00,60.00,Tuesday
7,27.0
8,31.175790134368325
9,31.426098631101405
96,58.14007846628154
2,3, 1, 3, 0,21, 0.00,60.00,Tuesday
7,27.0
8,29.481284030599775
9,29.67827613037035
96,64.26224418469859
2,3, 1, 3, 0,22, 0.00,60.00,Tuesday
7,26.874999999999998
8,28.107129133240475
9,28.26796741714255
96,69.75898869391297
2,3, 1, 3, 0,23, 0.00,60.00,Tuesday
7,26.6125
8,27.011548294793664
9,27.13543614744755
96,74.50360471589073
2,3, 1, 3, 0,24, 0.00,60.00,Tuesday
7,26.374999999999998
8,26.12160900775914
9,26.232852649317196
96,78.53562103138792
2,4, 1, 4, 0, 1, 0.00,60.00,Wednesday
7,26.1125
8,25.398065041626589
9,25.498577631210638
96,82.02343767214403
2,4, 1, 4, 0, 2, 0.00,60.00,Wednesday
7,26.0
8,24.811920567238475
9,24.901443062893529
96,84.98935522016346
2,4, 1, 4, 0, 3, 0.00,60.00,Wednesday
7,26.0
8,24.34871930397727
9,24.424036547147194
96,87.44778922831958
2,4, 1, 4, 0, 4, 0.00,60.00,Wednesday
7,26.187499999999998
8,23.996738639960513
9,24.062913836312803
96,89.36081217064734
2,4, 1, 4, 0, 5, 0.00,60.00,Wednesday
7,26.55
8,23.737123117292915
9,23.798448898349784
96,90.79187835088978
2,4, 1, 4, 0, 6, 0.00,60.00,Wednesday
7,26.8875
8,23.61088719347118
9,23.65557436205202
96,91.63225679612609
2,4, 1, 4, 0, 7, 0.00,60.00,Wednesday
7,27.437500000000005
8,23.99163878216531
9,24.00571572415317
96,89.76300590102179
2,4, 1, 4, 0, 8, 0.00,60.00,Wednesday
7,28.075
8,25.07246375744728
9,25.04982199489667
96,84.34761840378423
2,4, 1, 4, 0, 9, 0.00,60.00,Wednesday
7,28.7375
8,26.52606005583212
9,26.528406884289266
96,77.32181145256848
2,4, 1, 4, 0,10, 0.00,60.00,Wednesday
7,29.187499999999998
8,27.955376635858543
9,27.935519935439748
96,71.17730928870786
2,4, 1, 4, 0,11, 0.00,60.00,Wednesday
7,29.55
8,29.1906204064672
9,29.13297189048349
96,66.36711813417526
2,4, 1, 4, 0,12, 0.00,60.00,Wednesday
7,29.8875
8,30.105188029817577
9,30.0128339971787
96,63.08216689597076
2,4, 1, 4, 0,13, 0.00,60.00,Wednesday
7,30.0
8,31.006353558169189
9,30.847266458794008
96,60.10691352072365
2,4, 1, 4, 0,14, 0.00,60.00,Wednesday
7,30.0
8,31.88987931270149
9,31.734087649855995
96,57.09197111741592
2,4, 1, 4, 0,15, 0.00,60.00,Wednesday
7,30.0
8,32.48747298519476
9,32.374452318983788
96,55.039953037685339
2,4, 1, 4, 0,16, 0.00,60.00,Wednesday
7,29.562499999999998
8,33.042314377839428
9,33.01097116483038
96,53.10372531752816
2,4, 1, 4, 0,17, 0.00,60.00,Wednesday
7,28.925
8,33.10930192520083
9,33.26345905045319
96,52.35486977295447
2,4, 1, 4, 0,18, 0.00,60.00,Wednesday
7,28.2625
8,32.18261971778361
9,32.52223268586614
96,54.59400039444259
2,4, 1, 4, 0,19, 0.00,60.00,Wednesday
7,27.812500000000005
8,30.60314008955433
9,30.920122279516943
96,59.794258602313707
2,4, 1, 4, 0,20, 0.00,60.00,Wednesday
7,27.45
8,29.048906971201104
9,29.294888566671547
96,65.63024016987277
2,4, 1, 4, 0,21, 0.00,60.00,Wednesday
7,27.1125
8,27.7493680311415
9,27.9461277317323
96,71.0071055284701
2,4, 1, 4, 0,22, 0.00,60.00,Wednesday
7,26.812500000000005
8,26.69045395260015
9,26.845137525306677
96,75.75614681630933
2,4, 1, 4, 0,23, 0.00,60.00,Wednesday
7,26.45
8,25.820642140640623
9,25.961788387728928
96,79.80412479638329
2,4, 1, 4, 0,24, 0.00,60.00,Wednesday
7,26.1125
8,25.09008803880844
9,25.22522079858978
96,83.36761188511923
2,5, 1, 5, 0, 1, 0.00,60.00,Thursday
7,25.812500000000005
8,24.468318288299636
9,24.600436836920794
96,86.53175338782207
2,5, 1, 5, 0, 2, 0.00,60.00,Thursday
7,25.45
8,23.929309825899759
9,24.06234517575023
96,89.36613434766002
2,5, 1, 5, 0, 3, 0.00,60.00,Thursday
7,25.1125
8,23.44447858442847
9,23.581709637750213
96,91.98687367964036
2,5, 1, 5, 0, 4, 0.00,60.00,Thursday
7,24.812500000000005
8,23.00684118693923
9,23.148248811902698
96,94.36612569668641
2,5, 1, 5, 0, 5, 0.00,60.00,Thursday
7,24.45
8,22.61635515186889
9,22.7613177227417
96,96.56690104513038
2,5, 1, 5, 0, 6, 0.00,60.00,Thursday
7,24.1125
8,22.314300891926885
9,22.444155321038385
96,98.4431698742808
2,5, 1, 5, 0, 7, 0.00,60.00,Thursday
7,25.062500000000005
8,22.43292086247385
9,22.51614162885408
96,98.01595228432255
2,5, 1, 5, 0, 8, 0.00,60.00,Thursday
7,26.7
8,23.40333443097567
9,23.427469027598585
96,92.84043389596578
2,5, 1, 5, 0, 9, 0.00,60.00,Thursday
7,28.3625
8,25.140719891889128
9,25.161753850803735
96,83.78095964577548
2,5, 1, 5, 0,10, 0.00,60.00,Thursday
7,29.187499999999998
8,27.201920405364846
9,27.204964372471378
96,74.23983057017111
2,5, 1, 5, 0,11, 0.00,60.00,Thursday
7,29.55
8,29.188510583607188
9,29.164896145826665
96,66.20165398532316
2,5, 1, 5, 0,12, 0.00,60.00,Thursday
7,29.8875
8,30.919958757481984
9,30.849064472164316
96,60.09245160841667
2,5, 1, 5, 0,13, 0.00,60.00,Thursday
7,29.187500000000005
8,32.469616792855308
9,32.34778622651005
96,55.157249174905889
2,5, 1, 5, 0,14, 0.00,60.00,Thursday
7,27.825
8,33.84075080229389
9,33.69393714793711
96,51.089176481665749
2,5, 1, 5, 0,15, 0.00,60.00,Thursday
7,26.4875
8,34.89204174813191
9,34.833204596047689
96,47.93005083296774
2,5, 1, 5, 0,16, 0.00,60.00,Thursday
7,26.437500000000005
8,35.42743957913409
9,35.53524707744211
96,46.10197894431294
2,5, 1, 5, 0,17, 0.00,60.00,Thursday
7,27.075
8,35.26600082183595
9,35.559330991546797
96,46.04086534971595
2,5, 1, 5, 0,18, 0.00,60.00,Thursday
7,27.7375
8,34.16086655342342
9,34.66392072516196
96,48.38980302951003
2,5, 1, 5, 0,19, 0.00,60.00,Thursday
7,27.562499999999998
8,32.35021720447537
9,32.853027701220579
96,53.55174964769775
2,5, 1, 5, 0,20, 0.00,60.00,Thursday
7,26.925
8,30.500142189966956
9,30.88076108011832
96,59.913109565809119
2,5, 1, 5, 0,21, 0.00,60.00,Thursday
7,26.2625
8,28.85838408184372
9,29.11850457424656
96,66.34723326128548
2,5, 1, 5, 0,22, 0.00,60.00,Thursday
7,26.0
8,27.45146580545359
9,27.655613824007756
96,72.25129439285672
2,5, 1, 5, 0,23, 0.00,60.00,Thursday
7,26.0
8,26.298215743294244
9,26.45711949943586
96,77.5089497656968
2,5, 1, 5, 0,24, 0.00,60.00,Thursday
7,26.0
8,25.379628122788895
9,25.517017269609807
96,81.93686004440916
2,6, 1, 6, 0, 1, 0.00,60.00,Friday
7,25.812500000000005
8,24.6475316345279
9,24.775944941166359
96,85.57699225841081
2,6, 1, 6, 0, 2, 0.00,60.00,Friday
7,25.45
8,24.063520003593824
9,24.184979457743866
96,88.56792250514653
2,6, 1, 6, 0, 3, 0.00,60.00,Friday
7,25.1125
8,23.59485073264278
9,23.70777316001434
96,91.10955883031989
2,6, 1, 6, 0, 4, 0.00,60.00,Friday
7,24.562499999999998
8,23.192037288285026
9,23.30304986293726
96,93.35984566682284
2,6, 1, 6, 0, 5, 0.00,60.00,Friday
7,23.925
8,22.79443847940604
9,22.91081909183134
96,95.66080178586302
2,6, 1, 6, 0, 6, 0.00,60.00,Friday
7,23.2625
8,22.420174537347564
9,22.528482343395788
96,98.00170784417343
2,6, 1, 6, 0, 7, 0.00,60.00,Friday
7,24.062500000000005
8,22.428958126004397
9,22.491222516064317
96,98.26073476100626
2,6, 1, 6, 0, 8, 0.00,60.00,Friday
7,25.7
8,23.391033483820537
9,23.402257081203069
96,93.0818341781955
2,6, 1, 6, 0, 9, 0.00,60.00,Friday
7,27.3625
8,25.581177179210355
9,25.578296279937307
96,81.86753676262966
2,6, 1, 6, 0,10, 0.00,60.00,Friday
7,28.437500000000005
8,28.442783211436145
9,28.497853164993175
96,68.95631690227161
2,6, 1, 6, 0,11, 0.00,60.00,Friday
7,29.075
8,30.928199232251524
9,30.9413216108902
96,59.859465060623019
2,6, 1, 6, 0,12, 0.00,60.00,Friday
7,29.7375
8,32.83776599420563
9,32.84648052482567
96,53.72100386487963
2,6, 1, 6, 0,13, 0.00,60.00,Friday
7,30.187499999999998
8,34.21503553716299
9,34.190838323130417
96,49.788661057757938
2,6, 1, 6, 0,14, 0.00,60.00,Friday
7,30.55
8,35.2309902374226
9,35.14017508677974
96,47.18691426890767
2,6, 1, 6, 0,15, 0.00,60.00,Friday
7,30.8875
8,35.98800939325388
9,35.93241776836467
96,45.1515709538616
2,6, 1, 6, 0,16, 0.00,60.00,Friday
7,30.375
8,36.21068561656031
9,36.26365322631213
96,44.33654137900326
2,6, 1, 6, 0,17, 0.00,60.00,Friday
7,29.375
8,35.818004262976867
9,36.04672757904692
96,44.869265474841807
2,6, 1, 6, 0,18, 0.00,60.00,Friday
7,28.375
8,34.47460108478429
9,34.917833568910399
96,47.79794510027489
2,6, 1, 6, 0,19, 0.00,60.00,Friday
7,27.562499999999998
8,32.444151010645168
9,32.86596569960445
96,53.62600407114186
2,6, 1, 6, 0,20, 0.00,60.00,Friday
7,26.925
8,30.478670721672818
9,30.780143750147773
96,60.33987548379586
2,6, 1, 6, 0,21, 0.00,60.00,Friday
7,26.2625
8,28.84032892622763
9,29.065352048289577
96,66.61527090255334
2,6, 1, 6, 0,22, 0.00,60.00,Friday
7,25.874999999999998
8,27.497714868742663
9,27.67890738117826
96,72.17700724888594
2,6, 1, 6, 0,23, 0.00,60.00,Friday
7,25.7375
8,26.408017010622815
9,26.546482599419237
96,77.10010224382993
2,6, 1, 6, 0,24, 0.00,60.00,Friday
7,25.575
8,25.522995467524195
9,25.64629927179145
96,81.3101054228931
2,7, 1, 7, 0, 1, 0.00,60.00,Saturday
7,25.374999999999998
8,24.798335678587664
9,24.913413442377377
96,84.93074186645751
2,7, 1, 7, 0, 2, 0.00,60.00,Saturday
7,25.2375
8,24.191413314319975
9,24.303429672844176
96,88.02896567138869
2,7, 1, 7, 0, 3, 0.00,60.00,Saturday
7,25.075
8,23.673008957215726
9,23.78560504295856
96,90.77454176280024
2,7, 1, 7, 0, 4, 0.00,60.00,Saturday
7,24.812500000000005
8,23.21366685251726
9,23.33188328382375
96,93.34871133297477
2,7, 1, 7, 0, 5, 0.00,60.00,Saturday
7,24.45
8,22.78247873360357
9,22.910939004431009
96,95.79075415441338
2,7, 1, 7, 0, 6, 0.00,60.00,Saturday
7,24.1125
8,22.453347297309848
9,22.566502022843847
96,97.8716100204841
2,7, 1, 7, 0, 7, 0.00,60.00,Saturday
7,25.062500000000005
8,22.817965646468044
9,22.911545363418129
96,95.88900840923064
2,7, 1, 7, 0, 8, 0.00,60.00,Saturday
7,26.7
8,23.81411370039474
9,23.931404700686234
96,90.18296111634089
2,7, 1, 7, 0, 9, 0.00,60.00,Saturday
7,28.3625
8,25.47382325532856
9,25.62885554539058
96,81.51781819830177
2,7, 1, 7, 0,10, 0.00,60.00,Saturday
7,29.625
8,27.60863784265387
9,27.679711943449619
96,72.2503662067338
2,7, 1, 7, 0,11, 0.00,60.00,Saturday
7,30.625
8,29.635308217901746
9,29.62466775323767
96,64.49445216948485
2,7, 1, 7, 0,12, 0.00,60.00,Saturday
7,31.625
8,31.574967668306159
9,31.47574644102382
96,57.99488454441341
2,7, 1, 7, 0,13, 0.00,60.00,Saturday
7,31.562499999999998
8,33.29417528885537
9,33.1505616883843
96,52.75545315059499
2,7, 1, 7, 0,14, 0.00,60.00,Saturday
7,30.925
8,34.59941519270879
9,34.450621222849729
96,49.05813782225289
2,7, 1, 7, 0,15, 0.00,60.00,Saturday
7,30.2625
8,35.51792771413711
9,35.44003200967496
96,46.43931487927336
2,7, 1, 7, 0,16, 0.00,60.00,Saturday
7,29.562499999999998
8,35.934845971778099
9,35.9705731724313
96,45.100236526934008
2,7, 1, 7, 0,17, 0.00,60.00,Saturday
7,28.925
8,35.6652543335086
9,35.86897847411519
96,45.35397178513257
2,7, 1, 7, 0,18, 0.00,60.00,Saturday
7,28.2625
8,34.42800395144842
9,34.81056878272758
96,48.09771343272139
2,7, 1, 7, 0,19, 0.00,60.00,Saturday
7,27.812500000000005
8,32.53974080773148
9,32.89346724923931
96,53.538358565149298
2,7, 1, 7, 0,20, 0.00,60.00,Saturday
7,27.45
8,30.685454372679403
9,30.94329570807331
96,59.81487731496671
2,7, 1, 7, 0,21, 0.00,60.00,Saturday
7,27.1125
8,29.111246780325247
9,29.310762477618167
96,65.74093990177539
2,7, 1, 7, 0,22, 0.00,60.00,Saturday
7,26.812500000000005
8,27.793283660812774
9,27.96343393582857
96,71.05832054886123
2,7, 1, 7, 0,23, 0.00,60.00,Saturday
7,26.45
8,26.692212960493288
9,26.833023915527514
96,75.88633252838889
2,7, 1, 7, 0,24, 0.00,60.00,Saturday
7,26.1125
8,25.757024344590247
9,25.895765108971838
96,80.19741470846091
2,8, 1, 8, 0, 1, 0.00,60.00,Sunday
7,26.0
8,24.961870573141338
9,25.103730809070507
96,84.00460251717783
2,8, 1, 8, 0, 2, 0.00,60.00,Sunday
7,26.0
8,24.314260375851366
9,24.454825502682504
96,87.28890648807237
2,8, 1, 8, 0, 3, 0.00,60.00,Sunday
7,26.0
8,23.82346556719396
9,23.951244354166847
96,89.96356676443162
2,8, 1, 8, 0, 4, 0.00,60.00,Sunday
7,25.562499999999998
8,23.450336669263149
9,23.569172078402997
96,92.05504287905734
2,8, 1, 8, 0, 5, 0.00,60.00,Sunday
7,24.925
8,23.120059087958759
9,23.23962005864117
96,93.90388273807557
2,8, 1, 8, 0, 6, 0.00,60.00,Sunday
7,24.2625
8,22.845960669799035
9,22.945971125215345
96,95.64511992662104
2,8, 1, 8, 0, 7, 0.00,60.00,Sunday
7,25.25
8,23.060805945058445
9,23.10835736041049
96,94.7498393300501
2,8, 1, 8, 0, 8, 0.00,60.00,Sunday
7,27.25
8,24.254247555751378
9,24.255045048674867
96,88.52401274820234
2,8, 1, 8, 0, 9, 0.00,60.00,Sunday
7,29.25
8,26.236308003963189
9,26.2776966010288
96,78.58347483890297
2,8, 1, 8, 0,10, 0.00,60.00,Sunday
7,30.125000000000005
8,28.24743237643963
9,28.30710018159569
96,69.74132639610174
2,8, 1, 8, 0,11, 0.00,60.00,Sunday
7,30.2625
8,30.008928922601937
9,30.007129542843079
96,63.18489416247665
2,8, 1, 8, 0,12, 0.00,60.00,Sunday
7,30.425
8,31.62952568760005
9,31.556465759146478
96,57.79888350160079
2,8, 1, 8, 0,13, 0.00,60.00,Sunday
7,30.625000000000005
8,33.14852768196989
9,33.00659701005742
96,53.234615167399407
2,8, 1, 8, 0,14, 0.00,60.00,Sunday
7,30.7625
8,34.28639519163247
9,34.15838603014318
96,49.87579363962999
2,8, 1, 8, 0,15, 0.00,60.00,Sunday
7,30.925
8,34.959361272407637
9,34.84949821256359
96,47.978087881057437
2,8, 1, 8, 0,16, 0.00,60.00,Sunday
7,30.375
8,35.29554745350696
9,35.26948811667991
96,46.87477126234065
2,8, 1, 8, 0,17, 0.00,60.00,Sunday
7,29.375
8,34.752847410201407
9,34.862895118696439
96,47.94584959162307
2,8, 1, 8, 0,18, 0.00,60.00,Sunday
7,28.375
8,33.39759227633353
9,33.59610158217263
96,51.49279784569329
2,8, 1, 8, 0,19, 0.00,60.00,Sunday
7,27.812500000000005
8,31.757023709948745
9,31.93414548430681
96,56.55792477767715
2,8, 1, 8, 0,20, 0.00,60.00,Sunday
7,27.45
8,30.19191627028935
9,30.34900236029962
96,61.93283303833827
2,8, 1, 8, 0,21, 0.00,60.00,Sunday
7,27.1125
8,28.81204846455184
9,28.953066966930167
96,67.17508461161131
2,8, 1, 8, 0,22, 0.00,60.00,Sunday
7,27.0
8,27.639357316638685
9,27.755964589576519
96,71.99121683995233
2,8, 1, 8, 0,23, 0.00,60.00,Sunday
7,27.0
8,26.680474251079724
9,26.78228835889218
96,76.18505654596483
2,8, 1, 8, 0,24, 0.00,60.00,Sunday
7,27.0
8,25.917086902366653
9,26.00998173145159
96,79.73263759340091
2,9, 1, 9, 0, 1, 0.00,60.00,Monday
7,26.812500000000005
8,25.309045140278799
9,25.395503300817255
96,82.63792391100015
2,9, 1, 9, 0, 2, 0.00,60.00,Monday
7,26.45
8,24.812141422779484
9,24.89447831919299
96,85.05509368911584
2,9, 1, 9, 0, 3, 0.00,60.00,Monday
7,26.1125
8,24.3952605265171
9,24.47288617810671
96,87.19207428708572
2,9, 1, 9, 0, 4, 0.00,60.00,Monday
7,26.0
8,24.051733757132238
9,24.123283939256788
96,89.03762169396124
2,9, 1, 9, 0, 5, 0.00,60.00,Monday
7,26.0
8,23.764369591130824
9,23.83269497175369
96,90.6616551346099
2,9, 1, 9, 0, 6, 0.00,60.00,Monday
7,26.0
8,23.53947907668985
9,23.599664151466795
96,92.03294784719273
2,9, 1, 9, 0, 7, 0.00,60.00,Monday
7,26.812499999999998
8,23.604483446599568
9,23.62952022286663
96,91.9027061978681
2,9, 1, 9, 0, 8, 0.00,60.00,Monday
7,28.175
8,24.46851760149648
9,24.412003117778004
96,87.70664926795235
2,9, 1, 9, 0, 9, 0.00,60.00,Monday
7,29.5125
8,26.35548402370216
9,26.285686922822714
96,78.5021815748467
2,9, 1, 9, 0,10, 0.00,60.00,Monday
7,30.437500000000005
8,28.632454971900346
9,28.589181352026594
96,68.59968765275279
2,9, 1, 9, 0,11, 0.00,60.00,Monday
7,31.075
8,30.691451140099525
9,30.641450813195215
96,60.93932439916016
2,9, 1, 9, 0,12, 0.00,60.00,Monday
7,31.7375
8,32.47172599643253
9,32.36030721217207
96,55.2630257415788
2,9, 1, 9, 0,13, 0.00,60.00,Monday
7,31.812500000000005
8,33.854401569218008
9,33.6656105887941
96,51.32247651349695
2,9, 1, 9, 0,14, 0.00,60.00,Monday
7,31.45
8,35.14977691333767
9,34.94088291320075
96,47.761710303657867
2,9, 1, 9, 0,15, 0.00,60.00,Monday
7,31.1125
8,36.168577491230447
9,36.05663367493223
96,44.892773990651757
2,9, 1, 9, 0,16, 0.00,60.00,Monday
7,30.375
8,36.69796206131101
9,36.73790202714475
96,43.24479030329152
2,9, 1, 9, 0,17, 0.00,60.00,Monday
7,29.375
8,36.443937997239817
9,36.668875646937738
96,43.409063355331699
2,9, 1, 9, 0,18, 0.00,60.00,Monday
7,28.375
8,35.18933134824405
9,35.591692490183678
96,46.09634270550702
2,9, 1, 9, 0,19, 0.00,60.00,Monday
7,27.812500000000005
8,33.30059393189429
9,33.65644050538305
96,51.34894237998469
2,9, 1, 9, 0,20, 0.00,60.00,Monday
7,27.45
8,31.445081683405367
9,31.703614983340267
96,57.305842172838328
2,9, 1, 9, 0,21, 0.00,60.00,Monday
7,27.1125
8,29.858400489255574
9,30.056263665492084
96,62.98066177532352
2,9, 1, 9, 0,22, 0.00,60.00,Monday
7,26.812500000000005
8,28.53486334838455
9,28.69848577198876
96,68.1286370242305
2,9, 1, 9, 0,23, 0.00,60.00,Monday
7,26.45
8,27.419762762570199
9,27.550427913019364
96,72.83317085518027
2,9, 1, 9, 0,24, 0.00,60.00,Monday
7,26.1125
8,26.46171835385995
9,26.58283238005698
96,77.08533663670515
2,10, 1,10, 0, 1, 0.00,60.00,Tuesday
7,25.812500000000005
8,25.642760728415266
9,25.756202432465128
96,80.89094767442526
2,10, 1,10, 0, 2, 0.00,60.00,Tuesday
7,25.45
8,24.935541342707319
9,25.045091960066779
96,84.29761344969762
2,10, 1,10, 0, 3, 0.00,60.00,Tuesday
7,25.1125
8,24.31124849222842
9,24.420129205747388
96,87.47061224800524
2,10, 1,10, 0, 4, 0.00,60.00,Tuesday
7,24.562499999999998
8,23.75298885733163
9,23.863233773968469
96,90.44212077261874
2,10, 1,10, 0, 5, 0.00,60.00,Tuesday
7,23.925
8,23.235986418720264
9,23.349588468165018
96,93.28442571371362
2,10, 1,10, 0, 6, 0.00,60.00,Tuesday
7,23.2625
8,22.797247750586636
9,22.893209056657186
96,95.95261305919066
2,10, 1,10, 0, 7, 0.00,60.00,Tuesday
7,24.25
8,22.83618467893598
9,22.8735816676978
96,96.10282805031487
2,10, 1,10, 0, 8, 0.00,60.00,Tuesday
7,26.25
8,23.82354223321192
9,23.803760962628677
96,90.94523677154214
2,10, 1,10, 0, 9, 0.00,60.00,Tuesday
7,28.25
8,25.798890038556175
9,25.771582706586316
96,80.97932679260429
2,10, 1,10, 0,10, 0.00,60.00,Tuesday
7,29.625
8,28.156950134231914
9,28.094398882293768
96,70.63521683363277
2,10, 1,10, 0,11, 0.00,60.00,Tuesday
7,30.625
8,30.301668656205938
9,30.27191038460016
96,62.25309395248319
2,10, 1,10, 0,12, 0.00,60.00,Tuesday
7,31.625
8,32.087513937267498
9,32.045385007546389
96,56.25522190819863
2,10, 1,10, 0,13, 0.00,60.00,Tuesday
7,31.812500000000005
8,33.447414627571408
9,33.346449114973527
96,52.24443305105351
2,10, 1,10, 0,14, 0.00,60.00,Tuesday
7,31.45
8,34.75670072503917
9,34.56346303489158
96,48.77518269753937
2,10, 1,10, 0,15, 0.00,60.00,Tuesday
7,31.1125
8,36.130586778091
9,35.998804753351098
96,45.04072924525518
2,10, 1,10, 0,16, 0.00,60.00,Tuesday
7,30.562499999999998
8,36.94438665103311
9,36.98389592614916
96,42.66953473820256
2,10, 1,10, 0,17, 0.00,60.00,Tuesday
7,29.925
8,36.827554014548137
9,37.054979574864827
96,42.50403320060693
2,10, 1,10, 0,18, 0.00,60.00,Tuesday
7,29.2625
8,35.58963489248728
9,35.97472155870342
96,45.107732388358119
2,10, 1,10, 0,19, 0.00,60.00,Tuesday
7,28.562499999999998
8,33.689841092048677
9,34.02290771966996
96,50.26042018470334
2,10, 1,10, 0,20, 0.00,60.00,Tuesday
7,27.925
8,31.80129447391439
9,32.04372117591281
96,56.15834187292518
2,10, 1,10, 0,21, 0.00,60.00,Tuesday
7,27.2625
8,30.157728943160504
9,30.346527180701594
96,61.881902027135357
2,10, 1,10, 0,22, 0.00,60.00,Tuesday
7,27.0
8,28.7622507681713
9,28.92004404246353
96,67.15314340748955
2,10, 1,10, 0,23, 0.00,60.00,Tuesday
7,27.0
8,27.61264135492746
9,27.736117475982256
96,71.90490220369307
2,10, 1,10, 0,24, 0.00,60.00,Tuesday
7,27.0
8,26.691688316815247
9,26.795897128606826
96,75.97274125851244
2,11, 1,11, 0, 1, 0.00,60.00,Wednesday
7,27.0
8,25.96014089627625
9,26.052093270452834
96,79.32690081122036
2,11, 1,11, 0, 2, 0.00,60.00,Wednesday
7,27.0
8,25.38466819680289
9,25.464337333100258
96,82.1067821356697
2,11, 1,11, 0, 3, 0.00,60.00,Wednesday
7,27.0
8,24.930599322136897
9,25.00204249935098
96,84.39558050795586
2,11, 1,11, 0, 4, 0.00,60.00,Wednesday
7,26.812500000000005
8,24.557361249241759
9,24.628715203753726
96,86.29699732307459
2,11, 1,11, 0, 5, 0.00,60.00,Wednesday
7,26.45
8,24.211687748600867
9,24.291094781547586
96,88.05872920968364
2,11, 1,11, 0, 6, 0.00,60.00,Wednesday
7,26.1125
8,23.91687276479425
9,23.989287768762954
96,89.7227152351349
2,11, 1,11, 0, 7, 0.00,60.00,Wednesday
7,26.625
8,24.05716580846759
9,24.09818150060196
96,89.17280951195576
2,11, 1,11, 0, 8, 0.00,60.00,Wednesday
7,27.625
8,24.81028850648579
9,24.806450965622319
96,85.48115839896642
2,11, 1,11, 0, 9, 0.00,60.00,Wednesday
7,28.625
8,26.264663826165635
9,26.225857508653399
96,78.6476532967965
2,11, 1,11, 0,10, 0.00,60.00,Wednesday
7,29.437500000000005
8,28.418713860456465
9,28.310137451126786
96,69.61144181333711
2,11, 1,11, 0,11, 0.00,60.00,Wednesday
7,30.075
8,30.624777513022069
9,30.506321608172465
96,61.29507180531018
2,11, 1,11, 0,12, 0.00,60.00,Wednesday
7,30.7375
8,32.39259925553029
9,32.268563905237218
96,55.44200964191192
2,11, 1,11, 0,13, 0.00,60.00,Wednesday
7,31.187499999999998
8,33.92344407425288
9,33.760627472321207
96,50.95294865127213
2,11, 1,11, 0,14, 0.00,60.00,Wednesday
7,31.55
8,35.3227320914942
9,35.146177841583689
96,47.13092493507973
2,11, 1,11, 0,15, 0.00,60.00,Wednesday
7,31.8875
8,36.492634489167688
9,36.38668248037009
96,44.002369626594219
2,11, 1,11, 0,16, 0.00,60.00,Wednesday
7,31.562499999999998
8,37.12513473425438
9,37.1901327655966
96,42.10825302817153
2,11, 1,11, 0,17, 0.00,60.00,Wednesday
7,30.925
8,36.81146393648108
9,37.06627861632445
96,42.394960238663539
2,11, 1,11, 0,18, 0.00,60.00,Wednesday
7,30.2625
8,35.45375996308199
9,35.83977088848173
96,45.35589510613249
2,11, 1,11, 0,19, 0.00,60.00,Wednesday
7,29.562499999999998
8,33.55803632869768
9,33.87343558116329
96,50.57872117681869
2,11, 1,11, 0,20, 0.00,60.00,Wednesday
7,28.925
8,31.745509498224715
9,31.97714806808132
96,56.25544740640738
2,11, 1,11, 0,21, 0.00,60.00,Wednesday
7,28.2625
8,30.201012697588568
9,30.382890104992908
96,61.62777194609252
2,11, 1,11, 0,22, 0.00,60.00,Wednesday
7,27.812500000000005
8,28.90293632430505
9,29.05667788564408
96,66.5315676836384
2,11, 1,11, 0,23, 0.00,60.00,Wednesday
7,27.45
8,27.816580442478853
9,27.937737949571308
96,70.99223407339788
2,11, 1,11, 0,24, 0.00,60.00,Wednesday
7,27.1125
8,26.9016820364724
9,27.012153851344558
96,74.93930326842632
2,12, 1,12, 0, 1, 0.00,60.00,Thursday