Program Version,EnergyPlus, Version 8.9.0-40101eaafd, YMD=2025.08.27 04:02
1,5,Environment Title[],Latitude[deg],Longitude[deg],Time Zone[],Elevation[m]
2,8,Day of Simulation[],Month[],Day of Month[],DST Indicator[1=yes 0=no],Hour[],StartMinute[],EndMinute[],DayType
3,5,Cumulative Day of Simulation[],Month[],Day of Month[],DST Indicator[1=yes 0=no],DayType  ! When Daily Report Variables Requested
4,2,Cumulative Days of Simulation[],Month[]  ! When Monthly Report Variables Requested
5,1,Cumulative Days of Simulation[] ! When Run Period Report Variables Requested
6,1,Calendar Year of Simulation[] ! When Annual Report Variables Requested
7,1,Environment,Site Outdoor Air Drybulb Temperature [C] !Hourly
8,1,ZONE DEFAULT,Zone Mean Radiant Temperature [C] !Hourly
9,1,ZONE DEFAULT,Zone Mean Air Temperature [C] !Hourly
96,1,ZONE DEFAULT,Zone Air Relative Humidity [%] !Hourly
End of Data Dictionary
1,TROPOS3D MODEL,  -3.78, -38.53,  -3.00,  25.00
2,1, 1, 1, 0, 1, 0.00,60.00,Sunday
7,26.75
8,24.853156217723975
9,24.96654737327204
96,84.72175876901241
2,1, 1, 1, 0, 2, 0.00,60.00,Sunday
7,26.0
8,24.378785484374839
9,24.498743180673487
96,87.00399433543069
2,1, 1, 1, 0, 3, 0.00,60.00,Sunday
7,26.0
8,23.95039295522823
9,24.059026024118077
96,89.29398863841269
2,1, 1, 1, 0, 4, 0.00,60.00,Sunday
7,25.812500000000005
8,23.585857166576284
9,23.688484084174314
96,91.30508836286194
2,1, 1, 1, 0, 5, 0.00,60.00,Sunday
7,25.45
8,23.26422222819881
9,23.366793060250154
96,93.09282549339614
2,1, 1, 1, 0, 6, 0.00,60.00,Sunday
7,25.1125
8,23.01947741715011
9,23.105278155793067
96,94.63324219648432
2,1, 1, 1, 0, 7, 0.00,60.00,Sunday
7,25.437500000000005
8,23.223178686849719
9,23.257726234750395
96,93.8041744318603
2,1, 1, 1, 0, 8, 0.00,60.00,Sunday
7,26.075
8,24.342309009836727
9,24.313198285337405
96,88.06471449403299
2,1, 1, 1, 0, 9, 0.00,60.00,Sunday
7,26.7375
8,26.1488500463656
9,26.142650363300498
96,79.04379535796119
2,1, 1, 1, 0,10, 0.00,60.00,Sunday
7,27.625
8,27.938007701102526
9,27.941308079419323
96,71.13639452191423
2,1, 1, 1, 0,11, 0.00,60.00,Sunday
7,28.625
8,29.405753713486555
9,29.357434811199533
96,65.51734645787056
2,1, 1, 1, 0,12, 0.00,60.00,Sunday
7,29.625
8,30.725165995029557
9,30.601469634739148
96,60.99904161607517
2,1, 1, 1, 0,13, 0.00,60.00,Sunday
7,29.812500000000005
8,31.85214713294294
9,31.692954337135416
96,57.321193700694838
2,1, 1, 1, 0,14, 0.00,60.00,Sunday
7,29.45
8,32.72888417958214
9,32.57633455947383
96,54.52715124634034
2,1, 1, 1, 0,15, 0.00,60.00,Sunday
7,29.1125
8,33.549659513462398
9,33.42373452846168
96,51.99554448692085
2,1, 1, 1, 0,16, 0.00,60.00,Sunday
7,28.812500000000005
8,34.09311926266361
9,34.093546441246399
96,50.08297826290151
2,1, 1, 1, 0,17, 0.00,60.00,Sunday
7,28.45
8,33.827797837190249
9,34.00118927002549
96,50.342835565271787
2,1, 1, 1, 0,18, 0.00,60.00,Sunday
7,28.1125
8,32.564316708240067
9,32.87422530296655
96,53.63873864649324
2,1, 1, 1, 0,19, 0.00,60.00,Sunday
7,27.812500000000005
8,30.861033016888269
9,31.12697671072036
96,59.21236462723748
2,1, 1, 1, 0,20, 0.00,60.00,Sunday
7,27.45
8,29.292722065738464
9,29.500966681332025
96,64.98342430583036
2,1, 1, 1, 0,21, 0.00,60.00,Sunday
7,27.1125
8,27.970064242871414
9,28.144625509828445
96,70.28674944877364
2,1, 1, 1, 0,22, 0.00,60.00,Sunday
7,27.187499999999998
8,26.877225771339505
9,27.017300659642019
96,75.06865830380906
2,1, 1, 1, 0,23, 0.00,60.00,Sunday
7,27.55
8,26.013123670712458
9,26.137492675757004
96,79.0567787461516
2,1, 1, 1, 0,24, 0.00,60.00,Sunday
7,27.8875
8,25.369104282626084
9,25.475388345626599
96,82.2676150401922
2,2, 1, 2, 0, 1, 0.00,60.00,Monday
7,27.812500000000005
8,24.8830624895659
9,24.985494722123243
96,84.7308036614897
2,2, 1, 2, 0, 2, 0.00,60.00,Monday
7,27.45
8,24.47276037361295
9,24.583827157280206
96,86.78707774996302
2,2, 1, 2, 0, 3, 0.00,60.00,Monday
7,27.1125
8,24.090488878883279
9,24.212310691205219
96,88.73949566368373
2,2, 1, 2, 0, 4, 0.00,60.00,Monday
7,26.562499999999998
8,23.729569601057937
9,23.860504435001283
96,90.57782189255822
2,2, 1, 2, 0, 5, 0.00,60.00,Monday
7,25.925
8,23.400365854090926
9,23.534312271973158
96,92.33991642146843
2,2, 1, 2, 0, 6, 0.00,60.00,Monday
7,25.2625
8,23.179193457706537
9,23.2852984958856
96,93.7366616376005
2,2, 1, 2, 0, 7, 0.00,60.00,Monday
7,25.812499999999998
8,23.487518418894689
9,23.553000182165805
96,92.23953330903274
2,2, 1, 2, 0, 8, 0.00,60.00,Monday
7,27.175
8,24.46402274042738
9,24.46612196540182
96,87.33668992715306
2,2, 1, 2, 0, 9, 0.00,60.00,Monday
7,28.5125
8,26.25527464616983
9,26.238117303517585
96,78.67892989070538
2,2, 1, 2, 0,10, 0.00,60.00,Monday
7,29.437500000000005
8,28.13952585210116
9,28.101958863681007
96,70.5479813360383
2,2, 1, 2, 0,11, 0.00,60.00,Monday
7,30.075
8,29.816938585940574
9,29.732333875163105
96,64.22778594447667
2,2, 1, 2, 0,12, 0.00,60.00,Monday
7,30.7375
8,31.36919199110232
9,31.216625846371249
96,59.05443051893002
2,2, 1, 2, 0,13, 0.00,60.00,Monday
7,31.0
8,32.63776661826122
9,32.46532109944704
96,54.96996118446988
2,2, 1, 2, 0,14, 0.00,60.00,Monday
7,31.0
8,33.78135615965499
9,33.572365141217549
96,51.588781574452628
2,2, 1, 2, 0,15, 0.00,60.00,Monday
7,31.0
8,34.86501741152474
9,34.74576933262706
96,48.27763887112054
2,2, 1, 2, 0,16, 0.00,60.00,Monday
7,30.375
8,35.338557064591977
9,35.414930203226919
96,46.5003777548132
2,2, 1, 2, 0,17, 0.00,60.00,Monday
7,29.375
8,34.880319254086078
9,35.158839245156567
96,47.16577722705297
2,2, 1, 2, 0,18, 0.00,60.00,Monday
7,28.375
8,33.367234454548299
9,33.80493072187363
96,50.874014372678718
2,2, 1, 2, 0,19, 0.00,60.00,Monday
7,27.812500000000005
8,31.399312455679593
9,31.75229602996528
96,57.098243223358739
2,2, 1, 2, 0,20, 0.00,60.00,Monday
7,27.45
8,29.63628312949567
9,29.89954376861641
96,63.45254523408021
2,2, 1, 2, 0,21, 0.00,60.00,Monday
7,27.1125
8,28.199582549867949
9,28.408665146948637
96,69.19308876027425
2,2, 1, 2, 0,22, 0.00,60.00,Monday
7,26.812500000000005
8,27.04607295611632
9,27.212153598592736
96,74.2170208103754
2,2, 1, 2, 0,23, 0.00,60.00,Monday
7,26.45
8,26.119583968324429
9,26.26368481860925
96,78.47122766104634
2,2, 1, 2, 0,24, 0.00,60.00,Monday
7,26.1125
8,25.36473229629926
9,25.495644169321165
96,82.11969766422179
2,3, 1, 3, 0, 1, 0.00,60.00,Tuesday
7,26.0
8,24.74500844702573
9,24.86415299733862
96,85.15761585577779
2,3, 1, 3, 0, 2, 0.00,60.00,Tuesday
7,26.0
8,24.234169967970276
9,24.344462776183258
96,87.77907374110933
2,3, 1, 3, 0, 3, 0.00,60.00,Tuesday
7,26.0
8,23.801073884653385
9,23.90874100540791
96,90.04774290908117
2,3, 1, 3, 0, 4, 0.00,60.00,Tuesday
7,26.0
8,23.41592292000015
9,23.526730218807637
96,92.10793926274697
2,3, 1, 3, 0, 5, 0.00,60.00,Tuesday
7,25.812500000000005
8,23.06236879827192
9,23.181518892871343
96,94.10584039935131
2,3, 1, 3, 0, 6, 0.00,60.00,Tuesday
7,25.45
8,22.83521924775302
9,22.93500036984193
96,95.55402060530824
2,3, 1, 3, 0, 7, 0.00,60.00,Tuesday
7,25.1125
8,23.311611791813886
9,23.406858895348767
96,92.93454714738009
2,3, 1, 3, 0, 8, 0.00,60.00,Tuesday
7,26.875
8,24.475987261111049
9,24.57846957892235
96,86.68060932882526
2,3, 1, 3, 0, 9, 0.00,60.00,Tuesday
7,28.625
8,26.374989354932035
9,26.53798460284052
96,77.18339044116135
2,3, 1, 3, 0,10, 0.00,60.00,Tuesday
7,29.625
8,28.497250545867585
9,28.605944021532609
96,68.38396395816037
2,3, 1, 3, 0,11, 0.00,60.00,Tuesday
7,30.625
8,30.383315767888097
9,30.391220918906396
96,61.72548087551329
2,3, 1, 3, 0,12, 0.00,60.00,Tuesday
7,31.0
8,32.038624812934099
9,31.931932088598339
96,56.49207293158153
2,3, 1, 3, 0,13, 0.00,60.00,Tuesday
7,31.625
8,33.67027806430732
9,33.48950855846838
96,51.71434080458528
2,3, 1, 3, 0,14, 0.00,60.00,Tuesday
7,31.375
8,35.10192240112828
9,34.926477436528987
96,47.73526010875926
2,3, 1, 3, 0,15, 0.00,60.00,Tuesday
7,31.0
8,36.20950456702482
9,36.107445899174098
96,44.725159759257319
2,3, 1, 3, 0,16, 0.00,60.00,Tuesday
7,31.0
8,37.107888896367217
9,37.124249046166308
96,42.278043031797668
2,3, 1, 3, 0,17, 0.00,60.00,Tuesday
7,29.75
8,36.91497950612544
9,37.16623639312209
96,42.16560521231822
2,3, 1, 3, 0,18, 0.00,60.00,Tuesday
7,28.375
8,35.34836681643935
9,35.75766557133727
96,45.59683330111605
2,3, 1, 3, 0,19, 0.00,60.00,Tuesday
7,27.375
8,33.20016171746795
9,33.54235317833394
96,51.582261915982517
2,3, 1, 3, 0,20, 0.00,60.00,Tuesday
7,27.0
8,31.16833683139616
9,31.422561914165248
96,58.152291920532579
2,3, 1, 3, 0,21, 0.00,60.00,Tuesday
7,27.0
8,29.46028302167734
9,29.66253092468502
96,64.32078018050936
2,3, 1, 3, 0,22, 0.00,60.00,Tuesday
7,26.874999999999998
8,28.078886513247359
9,28.245076345367644
96,69.85208049691099
2,3, 1, 3, 0,23, 0.00,60.00,Tuesday
7,26.6125
8,26.97910376710781
9,27.108128999350027
96,74.62314176194225
2,3, 1, 3, 0,24, 0.00,60.00,Tuesday
7,26.374999999999998
8,26.0873098646637
9,26.20296875372908
96,78.67439345489888
2,4, 1, 4, 0, 1, 0.00,60.00,Wednesday
7,26.1125
8,25.36355483899649
9,25.46772946196948
96,82.17387923114653
2,4, 1, 4, 0, 2, 0.00,60.00,Wednesday
7,26.0
8,24.77877507168362
9,24.87058675093393
96,85.145962686167
2,4, 1, 4, 0, 3, 0.00,60.00,Wednesday
7,26.0
8,24.319086099300983
9,24.394486870860896
96,87.60263385288289
2,4, 1, 4, 0, 4, 0.00,60.00,Wednesday
7,26.187499999999998
8,23.9704974890483
9,24.03668230797746
96,89.50165167839055
2,4, 1, 4, 0, 5, 0.00,60.00,Wednesday
7,26.55
8,23.714635546516108
9,23.776065018130333
96,90.91421220346189
2,4, 1, 4, 0, 6, 0.00,60.00,Wednesday
7,26.8875
8,23.610024926155796
9,23.65053466659994
96,91.66019120548376
2,4, 1, 4, 0, 7, 0.00,60.00,Wednesday
7,27.437500000000005
8,24.073153525442025
9,24.089130026676849
96,89.3164875105175
2,4, 1, 4, 0, 8, 0.00,60.00,Wednesday
7,28.075
8,25.241567591286946
9,25.22459925381198
96,83.4798659155205
2,4, 1, 4, 0, 9, 0.00,60.00,Wednesday
7,28.7375
8,26.747237637175446
9,26.756309170713914
96,76.29252264244309
2,4, 1, 4, 0,10, 0.00,60.00,Wednesday
7,29.187499999999998
8,28.21541754737213
9,28.197369307075268
96,70.10086898080916
2,4, 1, 4, 0,11, 0.00,60.00,Wednesday
7,29.55
8,29.488088439595363
9,29.430477149320156
96,65.2378340520442
2,4, 1, 4, 0,12, 0.00,60.00,Wednesday
7,29.8875
8,30.42519875494219
9,30.330354888914536
96,61.944659434018848
2,4, 1, 4, 0,13, 0.00,60.00,Wednesday
7,30.0
8,31.37582824728977
9,31.216418229411013
96,58.85650667409163
2,4, 1, 4, 0,14, 0.00,60.00,Wednesday
7,30.0
8,32.222451378826637
9,32.06752458885086
96,56.02416805179272
2,4, 1, 4, 0,15, 0.00,60.00,Wednesday
7,30.0
8,32.8090089556871
9,32.6957328522885
96,54.052839208331409
2,4, 1, 4, 0,16, 0.00,60.00,Wednesday
7,29.562499999999998
8,33.35435837591028
9,33.324347772926667
96,52.178604810272727
2,4, 1, 4, 0,17, 0.00,60.00,Wednesday
7,28.925
8,33.347845620016688
9,33.50999241746389
96,51.63769715528764
2,4, 1, 4, 0,18, 0.00,60.00,Wednesday
7,28.2625
8,32.30585044978879
9,32.65274663307338
96,54.19792917184616
2,4, 1, 4, 0,19, 0.00,60.00,Wednesday
7,27.812500000000005
8,30.648517841428679
9,30.971702026370204
96,59.620043486084629
2,4, 1, 4, 0,20, 0.00,60.00,Wednesday
7,27.45
8,29.06356566630423
9,29.315937153105048
96,65.55127043393952
2,4, 1, 4, 0,21, 0.00,60.00,Wednesday
7,27.1125
8,27.744926086182159
9,27.947800968762967
96,71.0005965901207
2,4, 1, 4, 0,22, 0.00,60.00,Wednesday
7,26.812500000000005
8,26.675135448749047
9,26.834994969412013
96,75.80152909286938
2,4, 1, 4, 0,23, 0.00,60.00,Wednesday
7,26.45
8,25.79750401151976
9,25.94329312733565
96,79.89169065483317
2,4, 1, 4, 0,24, 0.00,60.00,Wednesday
7,26.1125
8,25.061894719959278
9,25.20076409048567
96,83.48912030822241
2,5, 1, 5, 0, 1, 0.00,60.00,Thursday
7,25.812500000000005
8,24.43712378974406
9,24.572408735136965
96,86.67696769358395
2,5, 1, 5, 0, 2, 0.00,60.00,Thursday
7,25.45
8,23.894944970040258
9,24.030800002455999
96,89.53563501214981
2,5, 1, 5, 0, 3, 0.00,60.00,Thursday
7,25.1125
8,23.407914043848366
9,23.547300070262904
96,92.17786397757766
2,5, 1, 5, 0, 4, 0.00,60.00,Thursday
7,24.812500000000005
8,22.969913464018107
9,23.11278447276826
96,94.56872470742155
2,5, 1, 5, 0, 5, 0.00,60.00,Thursday
7,24.45
8,22.579432661554784
9,22.725348352921896
96,96.7778065650584
2,5, 1, 5, 0, 6, 0.00,60.00,Thursday
7,24.1125
8,22.291212490275919
9,22.41651560788358
96,98.60854943806518
2,5, 1, 5, 0, 7, 0.00,60.00,Thursday
7,25.062500000000005
8,22.479367182883075
9,22.55880270256454
96,97.76398299464202
2,5, 1, 5, 0, 8, 0.00,60.00,Thursday
7,26.7
8,23.557102904523338
9,23.586387375732309
96,91.96005014784316
2,5, 1, 5, 0, 9, 0.00,60.00,Thursday
7,28.3625
8,25.3783109820006
9,25.419092141193035
96,82.51223565202639
2,5, 1, 5, 0,10, 0.00,60.00,Thursday
7,29.187499999999998
8,27.512402169296658
9,27.527540750468668
96,72.85294875549084
2,5, 1, 5, 0,11, 0.00,60.00,Thursday
7,29.55
8,29.543952324440178
9,29.523931527839637
96,64.84553093504721
2,5, 1, 5, 0,12, 0.00,60.00,Thursday
7,29.8875
8,31.303615551856063
9,31.231916571710174
96,58.79649132879517
2,5, 1, 5, 0,13, 0.00,60.00,Thursday
7,29.187500000000005
8,32.85161926064369
9,32.725697651024749
96,53.99499274480109
2,5, 1, 5, 0,14, 0.00,60.00,Thursday
7,27.825
8,34.210067683964087
9,34.057166462350718
96,50.06429824816051
2,5, 1, 5, 0,15, 0.00,60.00,Thursday
7,26.4875
8,35.24540009150432
9,35.188398471166738
96,46.997306457694559
2,5, 1, 5, 0,16, 0.00,60.00,Thursday
7,26.437500000000005
8,35.75113982929701
9,35.8686269438146
96,45.263903174356048
2,5, 1, 5, 0,17, 0.00,60.00,Thursday
7,27.075
8,35.52956974315545
9,35.841648205462188
96,45.33162494565229
2,5, 1, 5, 0,18, 0.00,60.00,Thursday
7,27.7375
8,34.30158535609146
9,34.8280541734034
96,47.95560927767801
2,5, 1, 5, 0,19, 0.00,60.00,Thursday
7,27.562499999999998
8,32.39239745835713
9,32.90458697771541
96,53.398825602488759
2,5, 1, 5, 0,20, 0.00,60.00,Thursday
7,26.925
8,30.505346555673066
9,30.883291029933806
96,59.90574999460202
2,5, 1, 5, 0,21, 0.00,60.00,Thursday
7,26.2625
8,28.842271056734977
9,29.103562933942457
96,66.4049847317703
2,5, 1, 5, 0,22, 0.00,60.00,Thursday
7,26.0
8,27.424774892585174
9,27.6318215289934
96,72.35195116176014
2,5, 1, 5, 0,23, 0.00,60.00,Thursday
7,26.0
8,26.267535444866789
9,26.430017129749886
96,77.63297457930014
2,5, 1, 5, 0,24, 0.00,60.00,Thursday
7,26.0
8,25.347128970135196
9,25.488011521758076
96,82.07815717774395
2,6, 1, 6, 0, 1, 0.00,60.00,Friday
7,25.812500000000005
8,24.61481465475837
9,24.74613595578109
96,85.72948694927051
2,6, 1, 6, 0, 2, 0.00,60.00,Friday
7,25.45
8,24.031368442472439
9,24.154921111861019
96,88.72778444685074
2,6, 1, 6, 0, 3, 0.00,60.00,Friday
7,25.1125
8,23.56352788148444
9,23.677577433882609
96,91.27536177493892
2,6, 1, 6, 0, 4, 0.00,60.00,Friday
7,24.562499999999998
8,23.157688472595824
9,23.270807783686139
96,93.54188299190969
2,6, 1, 6, 0, 5, 0.00,60.00,Friday
7,23.925
8,22.755765931359748
9,22.874512929822055
96,95.87148400374498
2,6, 1, 6, 0, 6, 0.00,60.00,Friday
7,23.2625
8,22.389881159008806
9,22.49554076283593
96,98.19782669988183
2,6, 1, 6, 0, 7, 0.00,60.00,Friday
7,24.062500000000005
8,22.469633759125978
9,22.524996672710146
96,98.06082723853845
2,6, 1, 6, 0, 8, 0.00,60.00,Friday
7,25.7
8,23.56047979335438
9,23.578027821607763
96,92.10809865828505
2,6, 1, 6, 0, 9, 0.00,60.00,Friday
7,27.3625
8,25.88390289267682
9,25.91623798810645
96,80.26187913695634
2,6, 1, 6, 0,10, 0.00,60.00,Friday
7,28.437500000000005
8,28.795539095685127
9,28.860171163316168
96,67.52279298090682
2,6, 1, 6, 0,11, 0.00,60.00,Friday
7,29.075
8,31.283277914326399
9,31.296417719066807
96,58.661495941288169
2,6, 1, 6, 0,12, 0.00,60.00,Friday
7,29.7375
8,33.21598089399289
9,33.2215015064474
96,52.60205754665769
2,6, 1, 6, 0,13, 0.00,60.00,Friday
7,30.187499999999998
8,34.55960247374035
9,34.526964717878808
96,48.8668066668729
2,6, 1, 6, 0,14, 0.00,60.00,Friday
7,30.55
8,35.58898087539798
9,35.490784020510599
96,46.282872125672628
2,6, 1, 6, 0,15, 0.00,60.00,Friday
7,30.8875
8,36.31601439439282
9,36.25737446207275
96,44.35353230097028
2,6, 1, 6, 0,16, 0.00,60.00,Friday
7,30.375
8,36.51248073557072
9,36.56650495755149
96,43.60763696345034
2,6, 1, 6, 0,17, 0.00,60.00,Friday
7,29.375
8,36.054990696775238
9,36.2947635603491
96,44.263831538493167
2,6, 1, 6, 0,18, 0.00,60.00,Friday
7,28.375
8,34.58585112375785
9,35.043879743369107
96,47.47043691818174
2,6, 1, 6, 0,19, 0.00,60.00,Friday
7,27.562499999999998
8,32.46448531465126
9,32.88460712737496
96,53.57142567492112
2,6, 1, 6, 0,20, 0.00,60.00,Friday
7,26.925
8,30.468357355727528
9,30.772137358763886
96,60.368063110062809
2,6, 1, 6, 0,21, 0.00,60.00,Friday
7,26.2625
8,28.812522169813506
9,29.041846777262309
96,66.70628598926754
2,6, 1, 6, 0,22, 0.00,60.00,Friday
7,25.874999999999998
8,27.461027936588907
9,27.64644547409341
96,72.31417262987063
2,6, 1, 6, 0,23, 0.00,60.00,Friday
7,25.7375
8,26.368209804442846
9,26.510826433317705
96,77.26231891748258
2,6, 1, 6, 0,24, 0.00,60.00,Friday
7,25.575
8,25.482189044323495
9,25.60935947015546
96,81.48852290781005
2,7, 1, 7, 0, 1, 0.00,60.00,Saturday
7,25.374999999999998
8,24.75679442860921
9,24.87549624318319
96,85.12312006105589
2,7, 1, 7, 0, 2, 0.00,60.00,Saturday
7,25.2375
8,24.1501261379395
9,24.26515222173694
96,88.23116043792283
2,7, 1, 7, 0, 3, 0.00,60.00,Saturday
7,25.075
8,23.631720347792354
9,23.747062803822926
96,90.98534544094845
2,7, 1, 7, 0, 4, 0.00,60.00,Saturday
7,24.812500000000005
8,23.171498180320194
9,23.292118129013376
96,93.57315879467024
2,7, 1, 7, 0, 5, 0.00,60.00,Saturday
7,24.45
8,22.739096004505194
9,22.869638473141455
96,96.03075465836084
2,7, 1, 7, 0, 6, 0.00,60.00,Saturday
7,24.1125
8,22.436576534851154
9,22.54180501220641
96,98.01835408025934
2,7, 1, 7, 0, 7, 0.00,60.00,Saturday
7,25.062500000000005
8,22.91493203206611
9,23.01145674885437
96,95.3129612633787
2,7, 1, 7, 0, 8, 0.00,60.00,Saturday
7,26.7
8,23.952300230367816
9,24.070138380110874
96,89.43700240281408
2,7, 1, 7, 0, 9, 0.00,60.00,Saturday
7,28.3625
8,25.716241722021253
9,25.883086527013277
96,80.30479248811202
2,7, 1, 7, 0,10, 0.00,60.00,Saturday
7,29.625
8,27.90764629383732
9,27.986518354093215
96,70.96939557312402
2,7, 1, 7, 0,11, 0.00,60.00,Saturday
7,30.625
8,29.97845261207048
9,29.968961781783876
96,63.231713982443057
2,7, 1, 7, 0,12, 0.00,60.00,Saturday
7,31.625
8,31.96061521312647
9,31.858921876674154
96,56.74877290097169
2,7, 1, 7, 0,13, 0.00,60.00,Saturday
7,31.562499999999998
8,33.65060320528187
9,33.49967468383579
96,51.733260084271559
2,7, 1, 7, 0,14, 0.00,60.00,Saturday
7,30.925
8,34.94825941649202
9,34.79068585074339
96,48.141308674129877
2,7, 1, 7, 0,15, 0.00,60.00,Saturday
7,30.2625
8,35.83670000275191
9,35.7533727655035
96,45.64465818803593
2,7, 1, 7, 0,16, 0.00,60.00,Saturday
7,29.562499999999998
8,36.22553636414969
9,36.262398832259858
96,44.3839345922486
2,7, 1, 7, 0,17, 0.00,60.00,Saturday
7,28.925
8,35.887407277434508
9,36.102247628662
96,44.77739479770665
2,7, 1, 7, 0,18, 0.00,60.00,Saturday
7,28.2625
8,34.53473094754433
9,34.9281771596318
96,47.78919896233234
2,7, 1, 7, 0,19, 0.00,60.00,Saturday
7,27.812500000000005
8,32.5653520806508
9,32.918531304258468
96,53.464190519429369
2,7, 1, 7, 0,20, 0.00,60.00,Saturday
7,27.45
8,30.68193211771299
9,30.94411880609789
96,59.81270738629394
2,7, 1, 7, 0,21, 0.00,60.00,Saturday
7,27.1125
8,29.09008243666476
9,29.29508889294136
96,65.80084318038355
2,7, 1, 7, 0,22, 0.00,60.00,Saturday
7,26.812500000000005
8,27.76122282228175
9,27.936738536931459
96,71.16923205937244
2,7, 1, 7, 0,23, 0.00,60.00,Saturday
7,26.45
8,26.652786820538425
9,26.798479891671769
96,76.04080748390834
2,7, 1, 7, 0,24, 0.00,60.00,Saturday
7,26.1125
8,25.711592802409237
9,25.854559015930886
96,80.39348438558314
2,8, 1, 8, 0, 1, 0.00,60.00,Sunday
7,26.0
8,24.917508458416056
9,25.062105265380774
96,84.2130944096802
2,8, 1, 8, 0, 2, 0.00,60.00,Sunday
7,26.0
8,24.27544185224773
9,24.417762729896315
96,87.48275631365149
2,8, 1, 8, 0, 3, 0.00,60.00,Sunday
7,26.0
8,23.78997043387126
9,23.9170882913762
96,90.14840581970982
2,8, 1, 8, 0, 4, 0.00,60.00,Sunday
7,25.562499999999998
8,23.41720416502272
9,23.535731540891825
96,92.24081273185625
2,8, 1, 8, 0, 5, 0.00,60.00,Sunday
7,24.925
8,23.085184222645084
9,23.204304455128207
96,94.10450115108512
2,8, 1, 8, 0, 6, 0.00,60.00,Sunday
7,24.2625
8,22.826044968965826
9,22.92060881644813
96,95.79195021015194
2,8, 1, 8, 0, 7, 0.00,60.00,Sunday
7,25.25
8,23.135026919192119
9,23.179266940229085
96,94.34723665958808
2,8, 1, 8, 0, 8, 0.00,60.00,Sunday
7,27.25
8,24.457239901783507
9,24.475220557326077
96,87.37265695565489
2,8, 1, 8, 0, 9, 0.00,60.00,Sunday
7,29.25
8,26.516537797660889
9,26.58376254312315
96,77.17880294340613
2,8, 1, 8, 0,10, 0.00,60.00,Sunday
7,30.125000000000005
8,28.541142744705863
9,28.60684347711482
96,68.53798030028563
2,8, 1, 8, 0,11, 0.00,60.00,Sunday
7,30.2625
8,30.352729311475554
9,30.350883298577089
96,61.95287414701076
2,8, 1, 8, 0,12, 0.00,60.00,Sunday
7,30.425
8,31.988972908089683
9,31.91026687347898
96,56.651711124746629
2,8, 1, 8, 0,13, 0.00,60.00,Sunday
7,30.625000000000005
8,33.516902367315029
9,33.3655589792949
96,52.173609875793
2,8, 1, 8, 0,14, 0.00,60.00,Sunday
7,30.7625
8,34.60409313152876
9,34.464298065760569
96,49.03430829190118
2,8, 1, 8, 0,15, 0.00,60.00,Sunday
7,30.925
8,35.27917294425777
9,35.16105728747523
96,47.15845502065544
2,8, 1, 8, 0,16, 0.00,60.00,Sunday
7,30.375
8,35.569882233765749
9,35.54633804974996
96,46.164553101825507
2,8, 1, 8, 0,17, 0.00,60.00,Sunday
7,29.375
8,34.91488174454801
9,35.057279181504828
96,47.43333837830738
2,8, 1, 8, 0,18, 0.00,60.00,Sunday
7,28.375
8,33.47232103247707
9,33.66519668511066
96,51.293801816057769
2,8, 1, 8, 0,19, 0.00,60.00,Sunday
7,27.812500000000005
8,31.778952906093918
9,31.965256576765115
96,56.459365833999047
2,8, 1, 8, 0,20, 0.00,60.00,Sunday
7,27.45
8,30.18983314825006
9,30.35496321481083
96,61.91224181171895
2,8, 1, 8, 0,21, 0.00,60.00,Sunday
7,27.1125
8,28.795592492640475
9,28.943768556668699
96,67.21155699156202
2,8, 1, 8, 0,22, 0.00,60.00,Sunday
7,27.0
8,27.615974557668488
9,27.73861348109508
96,72.06429783897363
2,8, 1, 8, 0,23, 0.00,60.00,Sunday
7,27.0
8,26.654168444522548
9,26.761133561917327
96,76.27997345212614
2,8, 1, 8, 0,24, 0.00,60.00,Sunday
7,27.0
8,25.88964954049255
9,25.986477467313369
96,79.8436245549688
2,9, 1, 9, 0, 1, 0.00,60.00,Monday
7,26.812500000000005
8,25.280799047704386
9,25.369748398833687
96,82.76456965365408
2,9, 1, 9, 0, 2, 0.00,60.00,Monday
7,26.45
8,24.78258928514088
9,24.865847804320084
96,85.20055592682967
2,9, 1, 9, 0, 3, 0.00,60.00,Monday
7,26.1125
8,24.366007357636275
9,24.44394406960268
96,87.34324983362873
2,9, 1, 9, 0, 4, 0.00,60.00,Monday
7,26.0
8,24.02374729342052
9,24.09553090499696
96,89.18605084233067
2,9, 1, 9, 0, 5, 0.00,60.00,Monday
7,26.0
8,23.737510478433888
9,23.80603944050942
96,90.80712936526399
2,9, 1, 9, 0, 6, 0.00,60.00,Monday
7,26.0
8,23.52158651811569
9,23.57970060720779
96,92.14362552955562
2,9, 1, 9, 0, 7, 0.00,60.00,Monday
7,26.812499999999998
8,23.63730014956952
9,23.658821763657767
96,91.7415625606107
2,9, 1, 9, 0, 8, 0.00,60.00,Monday
7,28.175
8,24.620712365068156
9,24.566476774169929
96,86.90515069092123
2,9, 1, 9, 0, 9, 0.00,60.00,Monday
7,29.5125
8,26.637682779160028
9,26.585560377705009
96,77.1315043204601
2,9, 1, 9, 0,10, 0.00,60.00,Monday
7,30.437500000000005
8,28.966753158794974
9,28.933477939072266
96,67.2459704331527
2,9, 1, 9, 0,11, 0.00,60.00,Monday
7,31.075
8,31.076947980096656
9,31.028431436472219
96,59.60964847693779
2,9, 1, 9, 0,12, 0.00,60.00,Monday
7,31.7375
8,32.88220866644202
9,32.76174174636531
96,54.027965347350789
2,9, 1, 9, 0,13, 0.00,60.00,Monday
7,31.812500000000005
8,34.28535588618211
9,34.09116080620865
96,50.11882085690898
2,9, 1, 9, 0,14, 0.00,60.00,Monday
7,31.45
8,35.567385092577499
9,35.35350835049092
96,46.68486994810719
2,9, 1, 9, 0,15, 0.00,60.00,Monday
7,31.1125
8,36.56611345735856
9,36.4479425242607
96,43.939993840961708
2,9, 1, 9, 0,16, 0.00,60.00,Monday
7,30.375
8,37.03903226683692
9,37.08209665605225
96,42.44039979099728
2,9, 1, 9, 0,17, 0.00,60.00,Monday
7,29.375
8,36.700903934617048
9,36.936926454448208
96,42.779306959365
2,9, 1, 9, 0,18, 0.00,60.00,Monday
7,28.375
8,35.312861627527798
9,35.725715497935599
96,45.76158398085537
2,9, 1, 9, 0,19, 0.00,60.00,Monday
7,27.812500000000005
8,33.338468743391057
9,33.692973526939699
96,51.245315416842959
2,9, 1, 9, 0,20, 0.00,60.00,Monday
7,27.45
8,31.450136412105765
9,31.713013495310557
96,57.276008692804229
2,9, 1, 9, 0,21, 0.00,60.00,Monday
7,27.1125
8,29.844251168304134
9,30.04768028443695
96,63.01209004802187
2,9, 1, 9, 0,22, 0.00,60.00,Monday
7,26.812500000000005
8,28.50922127143867
9,28.67851210455219
96,68.2078094214586
2,9, 1, 9, 0,23, 0.00,60.00,Monday
7,26.45
8,27.387648409713923
9,27.523489950957648
96,72.94812271729434
2,9, 1, 9, 0,24, 0.00,60.00,Monday
7,26.1125
8,26.426282502294968
9,26.55204012833789
96,77.22534679191024
2,10, 1,10, 0, 1, 0.00,60.00,Tuesday
7,25.812500000000005
8,25.605372946478757
9,25.723046975160054
96,81.05014169318338
2,10, 1,10, 0, 2, 0.00,60.00,Tuesday
7,25.45
8,24.896070953502858
9,25.009457586620426
96,84.47689019425929
2,10, 1,10, 0, 3, 0.00,60.00,Tuesday
7,25.1125
8,24.27111000733232
9,24.383168766312953
96,87.66443958496029
2,10, 1,10, 0, 4, 0.00,60.00,Tuesday
7,24.562499999999998
8,23.711665164020599
9,23.82498509658331
96,90.65045197745552
2,10, 1,10, 0, 5, 0.00,60.00,Tuesday
7,23.925
8,23.19360575402678
9,23.309779565400488
96,93.50892397466324
2,10, 1,10, 0, 6, 0.00,60.00,Tuesday
7,23.2625
8,22.77060633502985
9,22.862149309729536
96,96.13299333284982
2,10, 1,10, 0, 7, 0.00,60.00,Tuesday
7,24.25
8,22.89618838524434
9,22.927500926807768
96,95.79106254809669
2,10, 1,10, 0, 8, 0.00,60.00,Tuesday
7,26.25
8,24.01085708807198
9,23.99745326171661
96,89.89997838607587
2,10, 1,10, 0, 9, 0.00,60.00,Tuesday
7,28.25
8,26.101388952980984
9,26.093527483339679
96,79.46560978718596
2,10, 1,10, 0,10, 0.00,60.00,Tuesday
7,29.625
8,28.50875184810547
9,28.456810505457719
96,69.16300685088491
2,10, 1,10, 0,11, 0.00,60.00,Tuesday
7,30.625
8,30.69030848451948
9,30.66511439825918
96,60.863135710662508
2,10, 1,10, 0,12, 0.00,60.00,Tuesday
7,31.625
8,32.47545200042373
9,32.43034525846137
96,55.045433135584278
2,10, 1,10, 0,13, 0.00,60.00,Tuesday
7,31.812500000000005
8,33.820314813207918
9,33.70857996244832
96,51.19712654330023
2,10, 1,10, 0,14, 0.00,60.00,Tuesday
7,31.45
8,35.15677485034662
9,34.95100229019921
96,47.7405552613265
2,10, 1,10, 0,15, 0.00,60.00,Tuesday
7,31.1125
8,36.50570716410828
9,36.37168630430967
96,44.12858019253743
2,10, 1,10, 0,16, 0.00,60.00,Tuesday
7,30.562499999999998
8,37.26305646575172
9,37.30646082398386
96,41.92639113029969
2,10, 1,10, 0,17, 0.00,60.00,Tuesday
7,29.925
8,37.05881889030577
9,37.297935432450888
96,41.94633357208503
2,10, 1,10, 0,18, 0.00,60.00,Tuesday
7,29.2625
8,35.69593360975831
9,36.09118500353949
96,44.823720412547249
2,10, 1,10, 0,19, 0.00,60.00,Tuesday
7,28.562499999999998
8,33.71895837748022
9,34.05236212673739
96,50.179129090207229
2,10, 1,10, 0,20, 0.00,60.00,Tuesday
7,27.925
8,31.799327479437
9,32.04702059115381
96,56.148493295486279
2,10, 1,10, 0,21, 0.00,60.00,Tuesday
7,27.2625
8,30.136573863278234
9,30.331741971365
96,61.93478161969453
2,10, 1,10, 0,22, 0.00,60.00,Tuesday
7,27.0
8,28.731542618160348
9,28.895094056710385
96,67.25032368385769
2,10, 1,10, 0,23, 0.00,60.00,Tuesday
7,27.0
8,27.579273950825625
9,27.708162082220527
96,72.02241808978913
2,10, 1,10, 0,24, 0.00,60.00,Tuesday
7,27.0
8,26.65781278655819
9,26.766789537689019
96,76.10293370079995
2,11, 1,11, 0, 1, 0.00,60.00,Wednesday
7,27.0
8,25.92740887931397
9,26.022832706821356
96,79.46430313965476
2,11, 1,11, 0, 2, 0.00,60.00,Wednesday
7,27.0
8,25.35360610103223
9,25.43452639803768
96,82.25234904806908
2,11, 1,11, 0, 3, 0.00,60.00,Wednesday
7,27.0
8,24.901233392973869
9,24.972994449544744
96,84.54185244629353
2,11, 1,11, 0, 4, 0.00,60.00,Wednesday
7,26.812500000000005
8,24.527252815886418
9,24.59916773565447
96,86.44961142159773
2,11, 1,11, 0, 5, 0.00,60.00,Wednesday
7,26.45
8,24.177691619824296
9,24.258097724673069
96,88.23312448818085
2,11, 1,11, 0, 6, 0.00,60.00,Wednesday
7,26.1125
8,23.89980731492917
9,23.96674478311563
96,89.84411594463444
2,11, 1,11, 0, 7, 0.00,60.00,Wednesday
7,26.625
8,24.10857310940128
9,24.149644464797747
96,88.89852800756892
2,11, 1,11, 0, 8, 0.00,60.00,Wednesday
7,27.625
8,24.922637604300748
9,24.91860002172992
96,84.91286148054002
2,11, 1,11, 0, 9, 0.00,60.00,Wednesday
7,28.625
8,26.46838214411151
9,26.433253173712687
96,77.69552267188623
2,11, 1,11, 0,10, 0.00,60.00,Wednesday
7,29.437500000000005
8,28.711817889944695
9,28.60892951044461
96,68.41620081842845
2,11, 1,11, 0,11, 0.00,60.00,Wednesday
7,30.075
8,30.945950397584125
9,30.826016322061425
96,60.18658241806466
2,11, 1,11, 0,12, 0.00,60.00,Wednesday
7,30.7375
8,32.75773078720676
9,32.62541437034608
96,54.338591184206219
2,11, 1,11, 0,13, 0.00,60.00,Wednesday
7,31.187499999999998
8,34.30890910063884
9,34.136399213921468
96,49.89699833838429
2,11, 1,11, 0,14, 0.00,60.00,Wednesday
7,31.55
8,35.70896450053318
9,35.52480669213642
96,46.156505280652599
2,11, 1,11, 0,15, 0.00,60.00,Wednesday
7,31.8875
8,36.87168216869731
9,36.76145786897664
96,43.109736009032769
2,11, 1,11, 0,16, 0.00,60.00,Wednesday
7,31.562499999999998
8,37.455820551225887
9,37.52400271194799
96,41.35070531249236
2,11, 1,11, 0,17, 0.00,60.00,Wednesday
7,30.925
8,37.04430301388456
9,37.31252170626614
96,41.831513246391669
2,11, 1,11, 0,18, 0.00,60.00,Wednesday
7,30.2625
8,35.56722893688874
9,35.96632448841675
96,45.04468130540286
2,11, 1,11, 0,19, 0.00,60.00,Wednesday
7,29.562499999999998
8,33.59489478005974
9,33.91479529217752
96,50.46321027561016
2,11, 1,11, 0,20, 0.00,60.00,Wednesday
7,28.925
8,31.749971165732704
9,31.989337890532725
96,56.21736081904373
2,11, 1,11, 0,21, 0.00,60.00,Wednesday
7,28.2625
8,30.185255995223824
9,30.374930365278375
96,61.65631749822945
2,11, 1,11, 0,22, 0.00,60.00,Wednesday
7,27.812500000000005
8,28.87571254127954
9,29.03635631426496
96,66.60999391395923
2,11, 1,11, 0,23, 0.00,60.00,Wednesday
7,27.45
8,27.783831425499867
9,27.911016369020918
96,71.10304319730966
2,11, 1,11, 0,24, 0.00,60.00,Wednesday
7,27.1125
8,26.865913179288748
9,26.98154248208807
96,75.07418215447052