Program Version,EnergyPlus, Version 8.9.0-40101eaafd, YMD=2025.09.02 13:06
1,5,Environment Title[],Latitude[deg],Longitude[deg],Time Zone[],Elevation[m]
2,8,Day of Simulation[],Month[],Day of Month[],DST Indicator[1=yes 0=no],Hour[],StartMinute[],EndMinute[],DayType
3,5,Cumulative Day of Simulation[],Month[],Day of Month[],DST Indicator[1=yes 0=no],DayType  ! When Daily Report Variables Requested
4,2,Cumulative Days of Simulation[],Month[]  ! When Monthly Report Variables Requested
5,1,Cumulative Days of Simulation[] ! When Run Period Report Variables Requested
6,1,Calendar Year of Simulation[] ! When Annual Report Variables Requested
7,1,Environment,Site Outdoor Air Drybulb Temperature [C] !Hourly
8,1,ZONE DEFAULT,Zone Mean Radiant Temperature [C] !Hourly
9,1,ZONE DEFAULT,Zone Mean Air Temperature [C] !Hourly
96,1,ZONE DEFAULT,Zone Air Relative Humidity [%] !Hourly
End of Data Dictionary
1,TROPOS3D MODEL,  -3.78, -38.53,  -3.00,  25.00
2,1, 1, 1, 0, 1, 0.00,60.00,Sunday
7,26.75
8,25.352737435511714
9,25.445026553376687
96,82.34469964379771
2,1, 1, 1, 0, 2, 0.00,60.00,Sunday
7,26.0
8,24.748562712114027
9,24.86000336865124
96,85.14710924981037
2,1, 1, 1, 0, 3, 0.00,60.00,Sunday
7,26.0
8,24.213421781051794
9,24.329819835415177
96,87.85638252066163
2,1, 1, 1, 0, 4, 0.00,60.00,Sunday
7,25.812500000000005
8,23.751000330298429
9,23.875776862487009
96,90.2827601973782
2,1, 1, 1, 0, 5, 0.00,60.00,Sunday
7,25.45
8,23.341996387666183
9,23.481427680729149
96,92.45183482987615
2,1, 1, 1, 0, 6, 0.00,60.00,Sunday
7,25.1125
8,23.02001430732032
9,23.15797419817433
96,94.33252636240016
2,1, 1, 1, 0, 7, 0.00,60.00,Sunday
7,25.437500000000005
8,23.136011728072945
9,23.2377156923192
96,93.91620239916446
2,1, 1, 1, 0, 8, 0.00,60.00,Sunday
7,26.075
8,24.13656907728318
9,24.162449605599766
96,88.85768887784104
2,1, 1, 1, 0, 9, 0.00,60.00,Sunday
7,26.7375
8,25.891147801401919
9,25.8618619214274
96,80.36473551319975
2,1, 1, 1, 0,10, 0.00,60.00,Sunday
7,27.625
8,27.760272400513267
9,27.686076758077584
96,72.20786678877312
2,1, 1, 1, 0,11, 0.00,60.00,Sunday
7,28.625
8,29.396151694189123
9,29.251989123335187
96,65.92227493168481
2,1, 1, 1, 0,12, 0.00,60.00,Sunday
7,29.625
8,30.92070199668716
9,30.691864227695427
96,60.689593122235667
2,1, 1, 1, 0,13, 0.00,60.00,Sunday
7,29.812500000000005
8,32.26492149779423
9,31.99064508125752
96,56.36806175030828
2,1, 1, 1, 0,14, 0.00,60.00,Sunday
7,29.45
8,33.36837934187669
9,33.136883858001727
96,52.83937821318471
2,1, 1, 1, 0,15, 0.00,60.00,Sunday
7,29.1125
8,34.33279827669576
9,34.15061246520568
96,49.93053743633351
2,1, 1, 1, 0,16, 0.00,60.00,Sunday
7,28.812500000000005
8,35.04085515635951
9,34.98167991157963
96,47.675176405124407
2,1, 1, 1, 0,17, 0.00,60.00,Sunday
7,28.45
8,34.93727950274079
9,35.03491202211345
96,47.53464563250003
2,1, 1, 1, 0,18, 0.00,60.00,Sunday
7,28.1125
8,33.77311895047451
9,34.005094988831739
96,50.34809734741653
2,1, 1, 1, 0,19, 0.00,60.00,Sunday
7,27.812500000000005
8,32.06853789621367
9,32.26127470990252
96,55.526238137937287
2,1, 1, 1, 0,20, 0.00,60.00,Sunday
7,27.45
8,30.43423528590378
9,30.56417291953167
96,61.13881614699057
2,1, 1, 1, 0,21, 0.00,60.00,Sunday
7,27.1125
8,29.013374924690046
9,29.11429711580393
96,66.4454768112798
2,1, 1, 1, 0,22, 0.00,60.00,Sunday
7,27.187499999999998
8,27.80159474802062
9,27.883507380074425
96,71.36144794233246
2,1, 1, 1, 0,23, 0.00,60.00,Sunday
7,27.55
8,26.80807634518396
9,26.875850260891704
96,75.69256138566593
2,1, 1, 1, 0,24, 0.00,60.00,Sunday
7,27.8875
8,26.019777446827669
9,26.087305597880638
96,79.33974200535033
2,2, 1, 2, 0, 1, 0.00,60.00,Monday
7,27.812500000000005
8,25.382602160114297
9,25.464764387053024
96,82.34986098365184
2,2, 1, 2, 0, 2, 0.00,60.00,Monday
7,27.45
8,24.82922216264242
9,24.94017672360566
96,84.9608999094725
2,2, 1, 2, 0, 3, 0.00,60.00,Monday
7,27.1125
8,24.323260431382665
9,24.465190104191977
96,87.40614394955913
2,2, 1, 2, 0, 4, 0.00,60.00,Monday
7,26.562499999999998
8,23.857706253551897
9,24.02887853335731
96,89.66671180914465
2,2, 1, 2, 0, 5, 0.00,60.00,Monday
7,25.925
8,23.44225531145135
9,23.63650836818328
96,91.7735534315419
2,2, 1, 2, 0, 6, 0.00,60.00,Monday
7,25.2625
8,23.149072357380275
9,23.32743494038183
96,93.49866125968889
2,2, 1, 2, 0, 7, 0.00,60.00,Monday
7,25.812499999999998
8,23.374149566823307
9,23.50296699463014
96,92.51663363662746
2,2, 1, 2, 0, 8, 0.00,60.00,Monday
7,27.175
8,24.262304768697569
9,24.322079726894985
96,88.08947087620281
2,2, 1, 2, 0, 9, 0.00,60.00,Monday
7,28.5125
8,25.983247008965284
9,25.95574843341931
96,79.99896527192849
2,2, 1, 2, 0,10, 0.00,60.00,Monday
7,29.437500000000005
8,27.963525036845654
9,27.84889115813887
96,71.60062354410894
2,2, 1, 2, 0,11, 0.00,60.00,Monday
7,30.075
8,29.792109918958134
9,29.60442918304943
96,64.70723719529512
2,2, 1, 2, 0,12, 0.00,60.00,Monday
7,30.7375
8,31.534584784922349
9,31.27776365631928
96,58.855359952588148
2,2, 1, 2, 0,13, 0.00,60.00,Monday
7,31.0
8,33.021896662976818
9,32.759892241744328
96,54.0700503359256
2,2, 1, 2, 0,14, 0.00,60.00,Monday
7,31.0
8,34.34749464371035
9,34.08313679474049
96,50.14417027586218
2,2, 1, 2, 0,15, 0.00,60.00,Monday
7,31.0
8,35.68832939894381
9,35.499182452465458
96,46.31326942845379
2,2, 1, 2, 0,16, 0.00,60.00,Monday
7,30.375
8,36.48221792123266
9,36.48016392903466
96,43.85925551892153
2,2, 1, 2, 0,17, 0.00,60.00,Monday
7,29.375
8,36.305722909592088
9,36.46518752400391
96,43.895551397080087
2,2, 1, 2, 0,18, 0.00,60.00,Monday
7,28.375
8,34.93048175803325
9,35.24308343931644
96,46.967338731973857
2,2, 1, 2, 0,19, 0.00,60.00,Monday
7,27.812500000000005
8,32.94234219185781
9,33.21645600931344
96,52.57770296876945
2,2, 1, 2, 0,20, 0.00,60.00,Monday
7,27.45
8,31.071066162136476
9,31.246074893485436
96,58.755833925784887
2,2, 1, 2, 0,21, 0.00,60.00,Monday
7,27.1125
8,29.491207254216535
9,29.612705209863628
96,64.54256138277074
2,2, 1, 2, 0,22, 0.00,60.00,Monday
7,26.812500000000005
8,28.180049235441115
9,28.278777454536745
96,69.73935701663497
2,2, 1, 2, 0,23, 0.00,60.00,Monday
7,26.45
8,27.10482104037675
9,27.178946186100857
96,74.35972444392051
2,2, 1, 2, 0,24, 0.00,60.00,Monday
7,26.1125
8,26.210202392552476
9,26.282944315500595
96,78.38144418620792
2,3, 1, 3, 0, 1, 0.00,60.00,Tuesday
7,26.0
8,25.462858244478704
9,25.53512760863442
96,81.82514215625595
2,3, 1, 3, 0, 2, 0.00,60.00,Tuesday
7,26.0
8,24.83843019809739
9,24.911709192932059
96,84.85353828156349
2,3, 1, 3, 0, 3, 0.00,60.00,Tuesday
7,26.0
8,24.30816817372281
9,24.387718743406837
96,87.49753753938089
2,3, 1, 3, 0, 4, 0.00,60.00,Tuesday
7,26.0
8,23.845384528286617
9,23.935013572142535
96,89.8725541456358
2,3, 1, 3, 0, 5, 0.00,60.00,Tuesday
7,25.812500000000005
8,23.433691889433108
9,23.53463164634795
96,92.12162703583889
2,3, 1, 3, 0, 6, 0.00,60.00,Tuesday
7,25.45
8,23.156192445375365
9,23.239490461791598
96,93.81019152317055
2,3, 1, 3, 0, 7, 0.00,60.00,Tuesday
7,25.1125
8,23.544249108579309
9,23.621711016061029
96,91.73613668795264
2,3, 1, 3, 0, 8, 0.00,60.00,Tuesday
7,26.875
8,24.582969455259776
9,24.679722451189169
96,86.15008809835821
2,3, 1, 3, 0, 9, 0.00,60.00,Tuesday
7,28.625
8,26.324722677144928
9,26.434131675514629
96,77.64631249719008
2,3, 1, 3, 0,10, 0.00,60.00,Tuesday
7,29.625
8,28.397367099927775
9,28.409189103716977
96,69.16992931172826
2,3, 1, 3, 0,11, 0.00,60.00,Tuesday
7,30.625
8,30.412952887780045
9,30.303351289390805
96,62.04186725233828
2,3, 1, 3, 0,12, 0.00,60.00,Tuesday
7,31.0
8,32.21477688712707
9,32.00305447175705
96,56.269774250458329
2,3, 1, 3, 0,13, 0.00,60.00,Tuesday
7,31.625
8,34.0237576283485
9,33.75331777519038
96,50.96275219583669
2,3, 1, 3, 0,14, 0.00,60.00,Tuesday
7,31.375
8,35.691855520382549
9,35.43582035173292
96,46.41589268923653
2,3, 1, 3, 0,15, 0.00,60.00,Tuesday
7,31.0
8,37.024559014471368
9,36.8343522396176
96,42.983831664661718
2,3, 1, 3, 0,16, 0.00,60.00,Tuesday
7,31.0
8,37.93288119574553
9,37.879292667937928
96,40.57918629034628
2,3, 1, 3, 0,17, 0.00,60.00,Tuesday
7,29.75
8,37.81507544886805
9,37.96348282446713
96,40.37880383125004
2,3, 1, 3, 0,18, 0.00,60.00,Tuesday
7,28.375
8,36.37626223626857
9,36.68166641546027
96,43.342021108268799
2,3, 1, 3, 0,19, 0.00,60.00,Tuesday
7,27.375
8,34.25914058917295
9,34.526030251638768
96,48.830804211429519
2,3, 1, 3, 0,20, 0.00,60.00,Tuesday
7,27.0
8,32.20492180368581
9,32.38364149547745
96,55.074690031260569
2,3, 1, 3, 0,21, 0.00,60.00,Tuesday
7,27.0
8,30.4442083409758
9,30.574596671948656
96,61.04396229500827
2,3, 1, 3, 0,22, 0.00,60.00,Tuesday
7,26.874999999999998
8,28.988343787375237
9,29.08946126088771
96,66.51651625692242
2,3, 1, 3, 0,23, 0.00,60.00,Tuesday
7,26.6125
8,27.796215622089137
9,27.87457409588121
96,71.35357144895605
2,3, 1, 3, 0,24, 0.00,60.00,Tuesday
7,26.374999999999998
8,26.809681823414637
9,26.873464380308353
96,75.6284198795583
2,4, 1, 4, 0, 1, 0.00,60.00,Wednesday
7,26.1125
8,25.986034189116475
9,26.047990150604755
96,79.39723742360977
2,4, 1, 4, 0, 2, 0.00,60.00,Wednesday
7,26.0
8,25.3010499371522
9,25.36082445063183
96,82.69698297020355
2,4, 1, 4, 0, 3, 0.00,60.00,Wednesday
7,26.0
8,24.74148132456731
9,24.797192685626017
96,85.51937118113249
2,4, 1, 4, 0, 4, 0.00,60.00,Wednesday
7,26.187499999999998
8,24.29628223057542
9,24.35125841154811
96,87.82947738541842
2,4, 1, 4, 0, 5, 0.00,60.00,Wednesday
7,26.55
8,23.946069586250073
9,24.00968091369079
96,89.64683569023983
2,4, 1, 4, 0, 6, 0.00,60.00,Wednesday
7,26.8875
8,23.744596756610915
9,23.80414170806889
96,90.8165048637205
2,4, 1, 4, 0, 7, 0.00,60.00,Wednesday
7,27.437500000000005
8,24.08662456445668
9,24.13804312373624
96,89.05213265254005
2,4, 1, 4, 0, 8, 0.00,60.00,Wednesday
7,28.075
8,25.12547345373567
9,25.138871834775974
96,83.89893916246104
2,4, 1, 4, 0, 9, 0.00,60.00,Wednesday
7,28.7375
8,26.59544844863151
9,26.58065735983158
96,77.08438193519967
2,4, 1, 4, 0,10, 0.00,60.00,Wednesday
7,29.187499999999998
8,28.15595764697185
9,28.059458970894729
96,70.66933747226796
2,4, 1, 4, 0,11, 0.00,60.00,Wednesday
7,29.55
8,29.650043582712784
9,29.466010940855406
96,65.11036663360525
2,4, 1, 4, 0,12, 0.00,60.00,Wednesday
7,29.8875
8,30.92013376977378
9,30.69315753962089
96,60.67923120938785
2,4, 1, 4, 0,13, 0.00,60.00,Wednesday
7,30.0
8,32.25115371739109
9,31.936758740538765
96,56.51121131574878
2,4, 1, 4, 0,14, 0.00,60.00,Wednesday
7,30.0
8,33.51114643635093
9,33.27070216427731
96,52.362372806872979
2,4, 1, 4, 0,15, 0.00,60.00,Wednesday
7,30.0
8,34.309562022030167
9,34.16242153083098
96,49.794909680122909
2,4, 1, 4, 0,16, 0.00,60.00,Wednesday
7,29.562499999999998
8,34.89918897719746
9,34.836620195754907
96,47.96440696826229
2,4, 1, 4, 0,17, 0.00,60.00,Wednesday
7,28.925
8,34.91840334065158
9,35.01469103692585
96,47.492658728806308
2,4, 1, 4, 0,18, 0.00,60.00,Wednesday
7,28.2625
8,33.87734676639604
9,34.13510876216723
96,49.88295035000742
2,4, 1, 4, 0,19, 0.00,60.00,Wednesday
7,27.812500000000005
8,32.14677312972506
9,32.38920171902663
96,55.01946416748803
2,4, 1, 4, 0,20, 0.00,60.00,Wednesday
7,27.45
8,30.434571633885246
9,30.59725300598458
96,60.90500880098933
2,4, 1, 4, 0,21, 0.00,60.00,Wednesday
7,27.1125
8,28.965847297413505
9,29.085018761938586
96,66.46868025038497
2,4, 1, 4, 0,22, 0.00,60.00,Wednesday
7,26.812500000000005
8,27.738675618566746
9,27.831564177179524
96,71.5074902925936
2,4, 1, 4, 0,23, 0.00,60.00,Wednesday
7,26.45
8,26.71441802398418
9,26.794556521973445
96,75.98087989801249
2,4, 1, 4, 0,24, 0.00,60.00,Wednesday
7,26.1125
8,25.844620289261287
9,25.928767476917245
96,79.96016007815591
2,5, 1, 5, 0, 1, 0.00,60.00,Thursday
7,25.812500000000005
8,25.102568197335786
9,25.192332346883679
96,83.53098485241437
2,5, 1, 5, 0, 2, 0.00,60.00,Thursday
7,25.45
8,24.46233988516183
9,24.560154867649666
96,86.74072955907728
2,5, 1, 5, 0, 3, 0.00,60.00,Thursday
7,25.1125
8,23.89653164677774
9,24.003162803469495
96,89.68460098745688
2,5, 1, 5, 0, 4, 0.00,60.00,Thursday
7,24.812500000000005
8,23.396464121417166
9,23.509686331762134
96,92.3297036873693
2,5, 1, 5, 0, 5, 0.00,60.00,Thursday
7,24.45
8,22.9544539296461
9,23.07353662798203
96,94.75841448240138
2,5, 1, 5, 0, 6, 0.00,60.00,Thursday
7,24.1125
8,22.61749259557658
9,22.720430495373486
96,96.80549244617703
2,5, 1, 5, 0, 7, 0.00,60.00,Thursday
7,25.062500000000005
8,22.734848377328978
9,22.792628127771754
96,96.38505675819721
2,5, 1, 5, 0, 8, 0.00,60.00,Thursday
7,26.7
8,23.68081261465809
9,23.685884529858514
96,91.39938643266292
2,5, 1, 5, 0, 9, 0.00,60.00,Thursday
7,28.3625
8,25.372201724109993
9,25.360323273398984
96,82.79421680388932
2,5, 1, 5, 0,10, 0.00,60.00,Thursday
7,29.187499999999998
8,27.43934359377676
9,27.36950280263732
96,73.52721808024683
2,5, 1, 5, 0,11, 0.00,60.00,Thursday
7,29.55
8,29.516852841782577
9,29.38833584478445
96,65.35767054613815
2,5, 1, 5, 0,12, 0.00,60.00,Thursday
7,29.8875
8,31.412859574044896
9,31.23572666849619
96,58.78914009104495
2,5, 1, 5, 0,13, 0.00,60.00,Thursday
7,29.187500000000005
8,33.15354431614881
9,32.952270724011928
96,53.31774493861196
2,5, 1, 5, 0,14, 0.00,60.00,Thursday
7,27.825
8,34.70210348911852
9,34.493017267057059
96,48.86908149230034
2,5, 1, 5, 0,15, 0.00,60.00,Thursday
7,26.4875
8,35.885002537880129
9,35.770714786054387
96,45.51474663641864
2,5, 1, 5, 0,16, 0.00,60.00,Thursday
7,26.437500000000005
8,36.51144393867556
9,36.548488579023729
96,43.60840366940775
2,5, 1, 5, 0,17, 0.00,60.00,Thursday
7,27.075
8,36.41249854425101
9,36.60596172213835
96,43.47137182970476
2,5, 1, 5, 0,18, 0.00,60.00,Thursday
7,27.7375
8,35.26722928286442
9,35.65435783282941
96,45.81588841227331
2,5, 1, 5, 0,19, 0.00,60.00,Thursday
7,27.562499999999998
8,33.36019730613169
9,33.75504262372112
96,50.9148499943444
2,5, 1, 5, 0,20, 0.00,60.00,Thursday
7,26.925
8,31.431876820697484
9,31.73659809194299
96,57.068826292632177
2,5, 1, 5, 0,21, 0.00,60.00,Thursday
7,26.2625
8,29.71200765791734
9,29.911481517885855
96,63.38677243218547
2,5, 1, 5, 0,22, 0.00,60.00,Thursday
7,26.0
8,28.22835871711269
9,28.372365587160176
96,69.2978051140973
2,5, 1, 5, 0,23, 0.00,60.00,Thursday
7,26.0
8,26.98881284370517
9,27.103303408724785
96,74.62063449129372
2,5, 1, 5, 0,24, 0.00,60.00,Thursday
7,26.0
8,25.975161466933014
9,26.06657073247368
96,79.31341007693571
2,6, 1, 6, 0, 1, 0.00,60.00,Friday
7,25.812500000000005
8,25.138498766628108
9,25.232443471897289
96,83.28128115971998
2,6, 1, 6, 0, 2, 0.00,60.00,Friday
7,25.45
8,24.44661905944419
9,24.546212614384396
96,86.67339608672342
2,6, 1, 6, 0, 3, 0.00,60.00,Friday
7,25.1125
8,23.87420945924828
9,23.979208781012493
96,89.63541478675151
2,6, 1, 6, 0, 4, 0.00,60.00,Friday
7,24.562499999999998
8,23.37380526338054
9,23.49151911051788
96,92.30502498867367
2,6, 1, 6, 0, 5, 0.00,60.00,Friday
7,23.925
8,22.89842519938326
9,23.031114558154319
96,94.96736856556228
2,6, 1, 6, 0, 6, 0.00,60.00,Friday
7,23.2625
8,22.484096237417768
9,22.608595785903476
96,97.52619895287896
2,6, 1, 6, 0, 7, 0.00,60.00,Friday
7,24.062500000000005
8,22.509862789797955
9,22.588621644868124
96,97.68155980148987
2,6, 1, 6, 0, 8, 0.00,60.00,Friday
7,25.7
8,23.47967267217717
9,23.508684334115018
96,92.48424699698416
2,6, 1, 6, 0, 9, 0.00,60.00,Friday
7,27.3625
8,25.60765733259653
9,25.60769862820808
96,81.71526930367804
2,6, 1, 6, 0,10, 0.00,60.00,Friday
7,28.437500000000005
8,28.33983346410397
9,28.377408483756143
96,69.43054856915144
2,6, 1, 6, 0,11, 0.00,60.00,Friday
7,29.075
8,30.707954663972097
9,30.67573017680278
96,60.775826653489257
2,6, 1, 6, 0,12, 0.00,60.00,Friday
7,29.7375
8,32.60543162377165
9,32.54562795005128
96,54.638148310134187
2,6, 1, 6, 0,13, 0.00,60.00,Friday
7,30.187499999999998
8,34.06368281805281
9,33.94515495082048
96,50.47654750901421
2,6, 1, 6, 0,14, 0.00,60.00,Friday
7,30.55
8,35.278030310079689
9,35.10202219332855
96,47.28975863787371
2,6, 1, 6, 0,15, 0.00,60.00,Friday
7,30.8875
8,36.30618159542564
9,36.16101052247276
96,44.591256253094098
2,6, 1, 6, 0,16, 0.00,60.00,Friday
7,30.375
8,36.84825807835848
9,36.804514927187629
96,43.0452547711394
2,6, 1, 6, 0,17, 0.00,60.00,Friday
7,29.375
8,36.73085200041227
9,36.853802274824008
96,42.92974421683638
2,6, 1, 6, 0,18, 0.00,60.00,Friday
7,28.375
8,35.51210997225414
9,35.82889526630559
96,45.45420561359914
2,6, 1, 6, 0,19, 0.00,60.00,Friday
7,27.562499999999998
8,33.49836930101686
9,33.81562414626815
96,50.847019563888839
2,6, 1, 6, 0,20, 0.00,60.00,Friday
7,26.925
8,31.50936823277127
9,31.730297630196647
96,57.16730977585884
2,6, 1, 6, 0,21, 0.00,60.00,Friday
7,26.2625
8,29.808164078086557
9,29.95334839473987
96,63.29452546908326
2,6, 1, 6, 0,22, 0.00,60.00,Friday
7,25.874999999999998
8,28.383542212433836
9,28.4936247777039
96,68.83442773953392
2,6, 1, 6, 0,23, 0.00,60.00,Friday
7,25.7375
8,27.200440495705469
9,27.285150720026217
96,73.8279901460149
2,6, 1, 6, 0,24, 0.00,60.00,Friday
7,25.575
8,26.22060160082617
9,26.290264101900879
96,78.27147124717986
2,7, 1, 7, 0, 1, 0.00,60.00,Saturday
7,25.374999999999998
8,25.402478725313139
9,25.472271658282616
96,82.15325906644553
2,7, 1, 7, 0, 2, 0.00,60.00,Saturday
7,25.2375
8,24.711574867560814
9,24.78485278206125
96,85.53101422434568
2,7, 1, 7, 0, 3, 0.00,60.00,Saturday
7,25.075
8,24.121244734829504
9,24.200256394584767
96,88.5421656912965
2,7, 1, 7, 0, 4, 0.00,60.00,Saturday
7,24.812500000000005
8,23.60274701974354
9,23.69091306811969
96,91.35031831432575
2,7, 1, 7, 0, 5, 0.00,60.00,Saturday
7,24.45
8,23.12149076754784
9,23.22264930045239
96,94.00176852206418
2,7, 1, 7, 0, 6, 0.00,60.00,Saturday
7,24.1125
8,22.771395645822495
9,22.851774580728834
96,96.19236078971523
2,7, 1, 7, 0, 7, 0.00,60.00,Saturday
7,25.062500000000005
8,23.160979039828257
9,23.24139366477277
96,93.99490871022566
2,7, 1, 7, 0, 8, 0.00,60.00,Saturday
7,26.7
8,24.090125408822883
9,24.207049719501766
96,88.69979449296237
2,7, 1, 7, 0, 9, 0.00,60.00,Saturday
7,28.3625
8,25.70260291541307
9,25.81456564143575
96,80.6184362641479
2,7, 1, 7, 0,10, 0.00,60.00,Saturday
7,29.625
8,27.798874631622519
9,27.800522512230406
96,71.74090840013182
2,7, 1, 7, 0,11, 0.00,60.00,Saturday
7,30.625
8,29.834764261299808
9,29.734309541636
96,64.08950136054375
2,7, 1, 7, 0,12, 0.00,60.00,Saturday
7,31.625
8,31.843290186129296
9,31.643588071044726
96,57.44786307786124
2,7, 1, 7, 0,13, 0.00,60.00,Saturday
7,31.562499999999998
8,33.663624811564449
9,33.422109288104767
96,51.962016622546489
2,7, 1, 7, 0,14, 0.00,60.00,Saturday
7,30.925
8,35.099530220783567
9,34.86421984699594
96,47.94807260756902
2,7, 1, 7, 0,15, 0.00,60.00,Saturday
7,30.2625
8,36.13686667649083
9,35.97780998800305
96,45.086786290193689
2,7, 1, 7, 0,16, 0.00,60.00,Saturday
7,29.562499999999998
8,36.6767794163418
9,36.63191192887581
96,43.49603477245582
2,7, 1, 7, 0,17, 0.00,60.00,Saturday
7,28.925
8,36.52166512460938
9,36.64040468602871
96,43.476177967190448
2,7, 1, 7, 0,18, 0.00,60.00,Saturday
7,28.2625
8,35.32840941301117
9,35.619455994117107
96,45.99618107531532
2,7, 1, 7, 0,19, 0.00,60.00,Saturday
7,27.812500000000005
8,33.436807792636397
9,33.7109780538482
96,51.14119535420398
2,7, 1, 7, 0,20, 0.00,60.00,Saturday
7,27.45
8,31.562023956756254
9,31.74852902413356
96,57.140264000228579
2,7, 1, 7, 0,21, 0.00,60.00,Saturday
7,27.1125
8,29.933767800875569
9,30.06668761784094
96,62.944310453803478
2,7, 1, 7, 0,22, 0.00,60.00,Saturday
7,26.812500000000005
8,28.540310690306279
9,28.651253721733299
96,68.27471571504465
2,7, 1, 7, 0,23, 0.00,60.00,Saturday
7,26.45
8,27.35164160215276
9,27.443574217505075
96,73.21896479629389
2,7, 1, 7, 0,24, 0.00,60.00,Saturday
7,26.1125
8,26.332368703779897
9,26.424053091455929
96,77.73405680779084
2,8, 1, 8, 0, 1, 0.00,60.00,Sunday
7,26.0
8,25.467323762973636
9,25.566005670444036
96,81.72795378238208
2,8, 1, 8, 0, 2, 0.00,60.00,Sunday
7,26.0
8,24.75389857657272
9,24.85754564729642
96,85.21386311523563
2,8, 1, 8, 0, 3, 0.00,60.00,Sunday
7,26.0
8,24.1830906430051
9,24.28767832729975
96,88.16620781017137
2,8, 1, 8, 0, 4, 0.00,60.00,Sunday
7,25.562499999999998
8,23.711500688965395
9,23.826753121290673
96,90.63932363624306
2,8, 1, 8, 0, 5, 0.00,60.00,Sunday
7,24.925
8,23.281121801508538
9,23.415032911472417
96,92.91539104977278
2,8, 1, 8, 0, 6, 0.00,60.00,Sunday
7,24.2625
8,22.93020608757104
9,23.056275492681576
96,95.0089177651212
2,8, 1, 8, 0, 7, 0.00,60.00,Sunday
7,25.25
8,23.13148369247643
9,23.221853768775249
96,94.10219669707476
2,8, 1, 8, 0, 8, 0.00,60.00,Sunday
7,27.25
8,24.31253404479416
9,24.35347246255398
96,87.99911946866152
2,8, 1, 8, 0, 9, 0.00,60.00,Sunday
7,29.25
8,26.294192866972993
9,26.32175279982348
96,78.37527450242306
2,8, 1, 8, 0,10, 0.00,60.00,Sunday
7,30.125000000000005
8,28.333227418062369
9,28.32256840974376
96,69.67938785305518
2,8, 1, 8, 0,11, 0.00,60.00,Sunday
7,30.2625
8,30.176180410372269
9,30.078946492235013
96,62.92763322873854
2,8, 1, 8, 0,12, 0.00,60.00,Sunday
7,30.425
8,31.92313103774363
9,31.744669117835444
96,57.18945084865097
2,8, 1, 8, 0,13, 0.00,60.00,Sunday
7,30.625000000000005
8,33.62051751460713
9,33.379326854049249
96,52.13842162299518
2,8, 1, 8, 0,14, 0.00,60.00,Sunday
7,30.7625
8,34.947165501177348
9,34.73587299917379
96,48.30457586656996
2,8, 1, 8, 0,15, 0.00,60.00,Sunday
7,30.925
8,35.80665756300576
9,35.63386470609508
96,45.94618092418597
2,8, 1, 8, 0,16, 0.00,60.00,Sunday
7,30.375
8,36.29331258129715
9,36.204335801113447
96,44.52549930539645
2,8, 1, 8, 0,17, 0.00,60.00,Sunday
7,29.375
8,35.82669294754072
9,35.87815584662566
96,45.334276936475458
2,8, 1, 8, 0,18, 0.00,60.00,Sunday
7,28.375
8,34.46589083089801
9,34.602965295853199
96,48.68651731554715
2,8, 1, 8, 0,19, 0.00,60.00,Sunday
7,27.812500000000005
8,32.762481665339368
9,32.87593647700717
96,53.634444407740108
2,8, 1, 8, 0,20, 0.00,60.00,Sunday
7,27.45
8,31.124409388332059
9,31.222009533878035
96,58.92452201191954
2,8, 1, 8, 0,21, 0.00,60.00,Sunday
7,27.1125
8,29.6700819376475
9,29.755621048109857
96,64.1377957474907
2,8, 1, 8, 0,22, 0.00,60.00,Sunday
7,27.0
8,28.41931911411609
9,28.49337664945157
96,68.96758466294219
2,8, 1, 8, 0,23, 0.00,60.00,Sunday
7,27.0
8,27.377155511064886
9,27.432112096828619
96,73.33673603596185
2,8, 1, 8, 0,24, 0.00,60.00,Sunday
7,27.0
8,26.519593012502303
9,26.57353367551994
96,77.12526177823884
2,9, 1, 9, 0, 1, 0.00,60.00,Monday
7,26.812500000000005
8,25.810473136154955
9,25.866173744538114
96,80.36355413346698
2,9, 1, 9, 0, 2, 0.00,60.00,Monday
7,26.45
8,25.2118345528609
9,25.274469312930987
96,83.152304893937
2,9, 1, 9, 0, 3, 0.00,60.00,Monday
7,26.1125
8,24.701072893943868
9,24.76802191944566
96,85.6679842737494
2,9, 1, 9, 0, 4, 0.00,60.00,Monday
7,26.0
8,24.275476919935195
9,24.343806643949855
96,87.86864322470531
2,9, 1, 9, 0, 5, 0.00,60.00,Monday
7,26.0
8,23.9133897258646
9,23.98865755930723
96,89.81621848417996
2,9, 1, 9, 0, 6, 0.00,60.00,Monday
7,26.0
8,23.620877632599208
9,23.698564626883028
96,91.48660622715606
2,9, 1, 9, 0, 7, 0.00,60.00,Monday
7,26.812499999999998
8,23.64462864102943
9,23.700053852409643
96,91.51308707350802
2,9, 1, 9, 0, 8, 0.00,60.00,Monday
7,28.175
8,24.49114566874973
9,24.475560725722365
96,87.37263564095102
2,9, 1, 9, 0, 9, 0.00,60.00,Monday
7,29.5125
8,26.38192248967888
9,26.315855188008137
96,78.36020407563757
2,9, 1, 9, 0,10, 0.00,60.00,Monday
7,30.437500000000005
8,28.724750704475875
9,28.613367450675278
96,68.50592358348267
2,9, 1, 9, 0,11, 0.00,60.00,Monday
7,31.075
8,30.973478557019143
9,30.809138312471324
96,60.36704055237922
2,9, 1, 9, 0,12, 0.00,60.00,Monday
7,31.7375
8,33.07316788559274
9,32.841968945226167
96,53.79463710933178
2,9, 1, 9, 0,13, 0.00,60.00,Monday
7,31.812500000000005
8,34.84218949592503
9,34.56391053779369
96,48.82750305532265
2,9, 1, 9, 0,14, 0.00,60.00,Monday
7,31.45
8,36.47716660663848
9,36.21799316799162
96,44.52307570050901
2,9, 1, 9, 0,15, 0.00,60.00,Monday
7,31.1125
8,37.70747584130046
9,37.54378840851101
96,41.39453302773617
2,9, 1, 9, 0,16, 0.00,60.00,Monday
7,30.375
8,38.30973618382507
9,38.30458241517234
96,39.718587758740948
2,9, 1, 9, 0,17, 0.00,60.00,Monday
7,29.375
8,38.04529133157429
9,38.19515807671566
96,39.95534005925484
2,9, 1, 9, 0,18, 0.00,60.00,Monday
7,28.375
8,36.66455450421934
9,36.979376597150928
96,42.72530709438247
2,9, 1, 9, 0,19, 0.00,60.00,Monday
7,27.812500000000005
8,34.61411457796711
9,34.90251513249064
96,47.914597222988678
2,9, 1, 9, 0,20, 0.00,60.00,Monday
7,27.45
8,32.611075348225167
9,32.80410093172292
96,53.85824185332205
2,9, 1, 9, 0,21, 0.00,60.00,Monday
7,27.1125
8,30.88387879226088
9,31.0218334123296
96,59.601294168986118
2,9, 1, 9, 0,22, 0.00,60.00,Monday
7,26.812500000000005
8,29.429695395084033
9,29.541776166354425
96,64.89122977072872
2,9, 1, 9, 0,23, 0.00,60.00,Monday
7,26.45
8,28.19577535454
9,28.289321332740145
96,69.76460858018784
2,9, 1, 9, 0,24, 0.00,60.00,Monday
7,26.1125
8,27.137094372238999
9,27.21780016489735
96,74.26393269900504
2,10, 1,10, 0, 1, 0.00,60.00,Tuesday
7,25.812500000000005
8,26.224937744836468
9,26.30427914409477
96,78.3121825382113
2,10, 1,10, 0, 2, 0.00,60.00,Tuesday
7,25.45
8,25.428407314393799
9,25.510132333381809
96,81.99891266410869
2,10, 1,10, 0, 3, 0.00,60.00,Tuesday
7,25.1125
8,24.71826393950991
9,24.80587859375226
96,85.47752610577175
2,10, 1,10, 0, 4, 0.00,60.00,Tuesday
7,24.562499999999998
8,24.075145019674435
9,24.172414903522364
96,88.77929726927204
2,10, 1,10, 0, 5, 0.00,60.00,Tuesday
7,23.925
8,23.4778032811029
9,23.58654208122992
96,91.96175108423458
2,10, 1,10, 0, 6, 0.00,60.00,Tuesday
7,23.2625
8,22.97815170588484
9,23.072607132285325
96,94.91653784163128
2,10, 1,10, 0, 7, 0.00,60.00,Tuesday
7,24.25
8,23.00915264616296
9,23.049594627832645
96,95.08414230186976
2,10, 1,10, 0, 8, 0.00,60.00,Tuesday
7,26.25
8,23.992719355462069
9,23.97485236313897
96,90.01308393450745
2,10, 1,10, 0, 9, 0.00,60.00,Tuesday
7,28.25
8,25.966684486036234
9,25.911119795745625
96,80.303723730451
2,10, 1,10, 0,10, 0.00,60.00,Tuesday
7,29.625
8,28.35121068339954
9,28.21047191904258
96,70.14526248834574
2,10, 1,10, 0,11, 0.00,60.00,Tuesday
7,30.625
8,30.58274429609673
9,30.451876233280374
96,61.613749312220168
2,10, 1,10, 0,12, 0.00,60.00,Tuesday
7,31.625
8,32.523222702648499
9,32.37331712930696
96,55.22806294544799
2,10, 1,10, 0,13, 0.00,60.00,Tuesday
7,31.812500000000005
8,34.07255916373292
9,33.8752146618032
96,50.727014339339
2,10, 1,10, 0,14, 0.00,60.00,Tuesday
7,31.45
8,35.53229588466122
9,35.28298292357981
96,46.872535912016108
2,10, 1,10, 0,15, 0.00,60.00,Tuesday
7,31.1125
8,36.94827221948489
9,36.75336934138856
96,43.217827822216587
2,10, 1,10, 0,16, 0.00,60.00,Tuesday
7,30.562499999999998
8,37.74471415248241
9,37.71761819756528
96,41.00095182498103
2,10, 1,10, 0,17, 0.00,60.00,Tuesday
7,29.925
8,37.611432566245998
9,37.76479729203507
96,40.89610188751134
2,10, 1,10, 0,18, 0.00,60.00,Tuesday
7,29.2625
8,36.33398566629237
9,36.64230589852164
96,43.48866625689176
2,10, 1,10, 0,19, 0.00,60.00,Tuesday
7,28.562499999999998
8,34.399198773141588
9,34.66356131166188
96,48.50222550493177
2,10, 1,10, 0,20, 0.00,60.00,Tuesday
7,27.925
8,32.48560520692679
9,32.665930373784437
96,54.22207116954912
2,10, 1,10, 0,21, 0.00,60.00,Tuesday
7,27.2625
8,30.80756970203607
9,30.94047295317926
96,59.81813160711138
2,10, 1,10, 0,22, 0.00,60.00,Tuesday
7,27.0
8,29.372726926182673
9,29.480125204286787
96,65.01658137399339
2,10, 1,10, 0,23, 0.00,60.00,Tuesday
7,27.0
8,28.176092089883477
9,28.259424086710973
96,69.74632093167934
2,10, 1,10, 0,24, 0.00,60.00,Tuesday
7,27.0
8,27.199828820872186
9,27.264919965541226
96,73.91044905740192
2,11, 1,11, 0, 1, 0.00,60.00,Wednesday
7,27.0
8,26.404485743909928
9,26.46413011464854
96,77.42112356625344
2,11, 1,11, 0, 2, 0.00,60.00,Wednesday
7,27.0
8,25.759628707324276
9,25.81469777605836
96,80.41860524481729
2,11, 1,11, 0, 3, 0.00,60.00,Wednesday
7,27.0
8,25.231871395441247
9,25.286581279762676
96,82.9784098284518
2,11, 1,11, 0, 4, 0.00,60.00,Wednesday
7,26.812500000000005
8,24.781817169273795
9,24.846196605741768
96,85.18383140908748
2,11, 1,11, 0, 5, 0.00,60.00,Wednesday
7,26.45
8,24.36694824498267
9,24.448117938784166
96,87.23486092201623
2,11, 1,11, 0, 6, 0.00,60.00,Wednesday
7,26.1125
8,24.039895617727333
9,24.113176235789508
96,89.05773341399493
2,11, 1,11, 0, 7, 0.00,60.00,Wednesday
7,26.625
8,24.18856418339631
9,24.235826042960949
96,88.43932534733189
2,11, 1,11, 0, 8, 0.00,60.00,Wednesday
7,27.625
8,24.92113428399404
9,24.94427518027118
96,84.78275652896413
2,11, 1,11, 0, 9, 0.00,60.00,Wednesday
7,28.625
8,26.34014600547799
9,26.27813897802574
96,78.40793458331805
2,11, 1,11, 0,10, 0.00,60.00,Wednesday
7,29.437500000000005
8,28.420414098993669
9,28.3025540855145
96,69.63644178597771
2,11, 1,11, 0,11, 0.00,60.00,Wednesday
7,30.075
8,30.546929797538483
9,30.3892047252897
96,61.70462551655293
2,11, 1,11, 0,12, 0.00,60.00,Wednesday
7,30.7375
8,32.367701061765078
9,32.15915678366609
96,55.787852187005878
2,11, 1,11, 0,13, 0.00,60.00,Wednesday
7,31.187499999999998
8,34.10946848886584
9,33.83994808201287
96,50.73444266893433
2,11, 1,11, 0,14, 0.00,60.00,Wednesday
7,31.55
8,35.778038342032569
9,35.51591995441623
96,46.18442485944146
2,11, 1,11, 0,15, 0.00,60.00,Wednesday
7,31.8875
8,37.18127080126543
9,36.997299423647188
96,42.56175155967242
2,11, 1,11, 0,16, 0.00,60.00,Wednesday
7,31.562499999999998
8,37.9901250323986
9,37.982812363757989
96,40.336142077183
2,11, 1,11, 0,17, 0.00,60.00,Wednesday
7,30.925
8,37.79630914115878
9,37.96215868442283
96,40.38166205445076
2,11, 1,11, 0,18, 0.00,60.00,Wednesday
7,30.2625
8,36.46807685620308
9,36.767581469049108
96,43.107723678314979
2,11, 1,11, 0,19, 0.00,60.00,Wednesday
7,29.562499999999998
8,34.54624745452252
9,34.79143582718351
96,48.063206644509879
2,11, 1,11, 0,20, 0.00,60.00,Wednesday
7,28.925
8,32.68647240696464
9,32.84570634131708
96,53.568249378967028
2,11, 1,11, 0,21, 0.00,60.00,Wednesday
7,28.2625
8,31.07182292138929
9,31.1874956032547
96,58.86359781487523
2,11, 1,11, 0,22, 0.00,60.00,Wednesday
7,27.812500000000005
8,29.693148516169467
9,29.7883795422432
96,63.78500446042574
2,11, 1,11, 0,23, 0.00,60.00,Wednesday
7,27.45
8,28.522378540365048
9,28.59573693595997
96,68.32871897996809
2,11, 1,11, 0,24, 0.00,60.00,Wednesday
7,27.1125
8,27.524498036176426
9,27.590214160179106
96,72.44540211355063
2,12, 1,12, 0, 1, 0.00,60.00,Thursday