Program Version,EnergyPlus, Version 8.9.0-40101eaafd, YMD=2025.08.27 01:31
1,5,Environment Title[],Latitude[deg],Longitude[deg],Time Zone[],Elevation[m]
2,8,Day of Simulation[],Month[],Day of Month[],DST Indicator[1=yes 0=no],Hour[],StartMinute[],EndMinute[],DayType
3,5,Cumulative Day of Simulation[],Month[],Day of Month[],DST Indicator[1=yes 0=no],DayType  ! When Daily Report Variables Requested
4,2,Cumulative Days of Simulation[],Month[]  ! When Monthly Report Variables Requested
5,1,Cumulative Days of Simulation[] ! When Run Period Report Variables Requested
6,1,Calendar Year of Simulation[] ! When Annual Report Variables Requested
7,1,Environment,Site Outdoor Air Drybulb Temperature [C] !Hourly
8,1,ZONE DEFAULT,Zone Mean Radiant Temperature [C] !Hourly
9,1,ZONE DEFAULT,Zone Mean Air Temperature [C] !Hourly
96,1,ZONE DEFAULT,Zone Air Relative Humidity [%] !Hourly
End of Data Dictionary
1,TROPOS3D MODEL, -22.83, -43.25,  -3.00,   5.00
2,1, 1, 1, 0, 1, 0.00,60.00,Sunday
7,26.1875
8,26.385242487106333
9,26.46331286731546
96,76.93899706858756
2,1, 1, 1, 0, 2, 0.00,60.00,Sunday
7,26.0
8,25.79006108261373
9,25.851703888805
96,79.74787001773595
2,1, 1, 1, 0, 3, 0.00,60.00,Sunday
7,26.0
8,25.337784703211879
9,25.38494666930442
96,81.95576629455715
2,1, 1, 1, 0, 4, 0.00,60.00,Sunday
7,25.625
8,24.952477755111226
9,24.995400311149309
96,83.82578904920209
2,1, 1, 1, 0, 5, 0.00,60.00,Sunday
7,25.4
8,24.601744848133707
9,24.641261822419968
96,85.58483806271812
2,1, 1, 1, 0, 6, 0.00,60.00,Sunday
7,25.4
8,24.345240989732994
9,24.360808159761825
96,87.03215181696683
2,1, 1, 1, 0, 7, 0.00,60.00,Sunday
7,25.4
8,24.46534941737247
9,24.437093552475067
96,86.63636498241998
2,1, 1, 1, 0, 8, 0.00,60.00,Sunday
7,25.775
8,25.036233759529865
9,24.96642436362345
96,83.99751482106751
2,1, 1, 1, 0, 9, 0.00,60.00,Sunday
7,27.8125
8,26.209437858234197
9,26.063413157695004
96,78.7516716753124
2,1, 1, 1, 0,10, 0.00,60.00,Sunday
7,28.9625
8,27.990801109492879
9,27.80051252844747
96,71.16856433652133
2,1, 1, 1, 0,11, 0.00,60.00,Sunday
7,29.3125
8,29.91833200303006
9,29.698673786037675
96,63.777030680572249
2,1, 1, 1, 0,12, 0.00,60.00,Sunday
7,30.8125
8,31.678552115832646
9,31.43862017886673
96,57.73268235598246
2,1, 1, 1, 0,13, 0.00,60.00,Sunday
7,32.1625
8,33.31323144579716
9,33.03972263909531
96,52.675165247468978
2,1, 1, 1, 0,14, 0.00,60.00,Sunday
7,32.875
8,34.6829900770274
9,34.41112764371135
96,48.77923386869492
2,1, 1, 1, 0,15, 0.00,60.00,Sunday
7,30.0375
8,35.658235751558589
9,35.453794967305118
96,46.027644720937008
2,1, 1, 1, 0,16, 0.00,60.00,Sunday
7,28.324999999999997
8,35.961864830586979
9,35.862662264846019
96,44.95476768060277
2,1, 1, 1, 0,17, 0.00,60.00,Sunday
7,28.4625
8,35.51642418487769
9,35.51430877421797
96,45.7817683220892
2,1, 1, 1, 0,18, 0.00,60.00,Sunday
7,28.312500000000005
8,34.59338665155248
9,34.66033357815373
96,47.98084504042368
2,1, 1, 1, 0,19, 0.00,60.00,Sunday
7,28.075
8,33.306491500410867
9,33.47661321648803
96,51.26106256920578
2,1, 1, 1, 0,20, 0.00,60.00,Sunday
7,28.25
8,31.703698767363386
9,31.888068363126906
96,56.125424400420879
2,1, 1, 1, 0,21, 0.00,60.00,Sunday
7,28.0875
8,30.29032080293144
9,30.43204708754456
96,61.05044523576953
2,1, 1, 1, 0,22, 0.00,60.00,Sunday
7,27.15
8,29.080471870828583
9,29.19423109395197
96,65.57338992754424
2,1, 1, 1, 0,23, 0.00,60.00,Sunday
7,26.637500000000004
8,28.025454382714046
9,28.116062138502188
96,69.79943833117851
2,1, 1, 1, 0,24, 0.00,60.00,Sunday
7,26.5375
8,27.1406833266802
9,27.222693076470184
96,73.53605497327908
2,2, 1, 2, 0, 1, 0.00,60.00,Monday
7,25.9375
8,26.344575082687187
9,26.432512129789573
96,77.03223947609952
2,2, 1, 2, 0, 2, 0.00,60.00,Monday
7,25.35
8,25.58804953206952
9,25.67964131424155
96,80.53845132660581
2,2, 1, 2, 0, 3, 0.00,60.00,Monday
7,25.075
8,24.979099026515479
9,25.054198972296999
96,83.53438062512089
2,2, 1, 2, 0, 4, 0.00,60.00,Monday
7,24.874999999999998
8,24.527064801880763
9,24.587864867397174
96,85.80579202759873
2,2, 1, 2, 0, 5, 0.00,60.00,Monday
7,24.6125
8,24.141984632665879
9,24.19954518877219
96,87.73709848824666
2,2, 1, 2, 0, 6, 0.00,60.00,Monday
7,24.374999999999998
8,23.814799883675826
9,23.8557858568038
96,89.53310887998704
2,2, 1, 2, 0, 7, 0.00,60.00,Monday
7,24.487500000000006
8,23.818381626024679
9,23.801166711414717
96,89.82747821514499
2,2, 1, 2, 0, 8, 0.00,60.00,Monday
7,25.6625
8,24.472571652215998
9,24.396433049039687
96,86.6859404885668
2,2, 1, 2, 0, 9, 0.00,60.00,Monday
7,27.612499999999998
8,25.715755423541386
9,25.56417914700702
96,80.97421385272073
2,2, 1, 2, 0,10, 0.00,60.00,Monday
7,28.7125
8,27.283112993704085
9,27.11651512269765
96,73.94521033094725
2,2, 1, 2, 0,11, 0.00,60.00,Monday
7,28.9625
8,28.992538832929207
9,28.78567032525166
96,67.08968832848355
2,2, 1, 2, 0,12, 0.00,60.00,Monday
7,30.437499999999998
8,30.62301430303795
9,30.39033566170897
96,61.163951646131639
2,2, 1, 2, 0,13, 0.00,60.00,Monday
7,30.737499999999998
8,32.066797860820447
9,31.815869453722056
96,56.38965674188738
2,2, 1, 2, 0,14, 0.00,60.00,Monday
7,29.7125
8,33.026685307526069
9,32.82915040113279
96,53.247299656895439
2,2, 1, 2, 0,15, 0.00,60.00,Monday
7,29.2375
8,33.72872026986552
9,33.54172536355029
96,51.16188091189179
2,2, 1, 2, 0,16, 0.00,60.00,Monday
7,29.2
8,34.02709818621943
9,33.92086324608443
96,50.05593662818751
2,2, 1, 2, 0,17, 0.00,60.00,Monday
7,28.512500000000004
8,33.84147177789681
9,33.79096489453899
96,50.40173615890788
2,2, 1, 2, 0,18, 0.00,60.00,Monday
7,26.2875
8,33.26774642959014
9,33.28691805206447
96,51.84510189482259
2,2, 1, 2, 0,19, 0.00,60.00,Monday
7,25.575
8,32.3011685829251
9,32.447785273841748
96,54.39021855930397
2,2, 1, 2, 0,20, 0.00,60.00,Monday
7,25.675000000000006
8,30.728010795555624
9,30.94801414419909
96,59.25120828350995
2,2, 1, 2, 0,21, 0.00,60.00,Monday
7,25.1
8,29.09578285645024
9,29.2839107306985
96,65.2218746933471
2,2, 1, 2, 0,22, 0.00,60.00,Monday
7,24.675000000000006
8,27.655376118684506
9,27.816809356298579
96,71.0380086174087
2,2, 1, 2, 0,23, 0.00,60.00,Monday
7,24.5375
8,26.49279255917779
9,26.612140218871614
96,76.27475586592203
2,2, 1, 2, 0,24, 0.00,60.00,Monday
7,24.4375
8,25.512192215567646
9,25.625923496436209
96,80.88039488039726
2,3, 1, 3, 0, 1, 0.00,60.00,Tuesday
7,24.4
8,24.613726756477026
9,24.728063209880209
96,85.31933058726963
2,3, 1, 3, 0, 2, 0.00,60.00,Tuesday
7,24.0875
8,23.820851669314189
9,23.939519438480013
96,89.4445980406587
2,3, 1, 3, 0, 3, 0.00,60.00,Tuesday
7,23.65
8,23.12348222857694
9,23.25523920322338
96,93.14983259311305
2,3, 1, 3, 0, 4, 0.00,60.00,Tuesday
7,23.312500000000005
8,22.496496559826676
9,22.6421306935933
96,96.6366549755081
2,3, 1, 3, 0, 5, 0.00,60.00,Tuesday
7,23.075
8,21.932860368800545
9,22.09136065403569
96,99.56874277470065
2,3, 1, 3, 0, 6, 0.00,60.00,Tuesday
7,23.125000000000005
8,21.508759817989419
9,21.66155132814487
96,100.0
2,3, 1, 3, 0, 7, 0.00,60.00,Tuesday
7,23.3875
8,21.570004361658623
9,21.65622088411747
96,99.36054642269804
2,3, 1, 3, 0, 8, 0.00,60.00,Tuesday
7,23.937500000000005
8,22.200558473572138
9,22.232365083849169
96,96.01071852709018
2,3, 1, 3, 0, 9, 0.00,60.00,Tuesday
7,24.7
8,23.364253978197647
9,23.287646664447168
96,90.10840032748937
2,3, 1, 3, 0,10, 0.00,60.00,Tuesday
7,26.124999999999998
8,24.79560074514319
9,24.678949650864337
96,82.93748905678388
2,3, 1, 3, 0,11, 0.00,60.00,Tuesday
7,27.55
8,26.31932269539903
9,26.16135666992061
96,75.9754925745505
2,3, 1, 3, 0,12, 0.00,60.00,Tuesday
7,29.062500000000005
8,28.02566956732266
9,27.80522875733729
96,68.98980339759365
2,3, 1, 3, 0,13, 0.00,60.00,Tuesday
7,27.8875
8,29.626995259460878
9,29.38602923268698
96,62.89481535252231
2,3, 1, 3, 0,14, 0.00,60.00,Tuesday
7,26.862499999999998
8,30.791407090390775
9,30.58008531299237
96,58.69832579972535
2,3, 1, 3, 0,15, 0.00,60.00,Tuesday
7,26.5875
8,31.931266740822488
9,31.70035106516088
96,55.076344320725677
2,3, 1, 3, 0,16, 0.00,60.00,Tuesday
7,26.275
8,32.99907062050448
9,32.84022301899164
96,51.608039050104689
2,3, 1, 3, 0,17, 0.00,60.00,Tuesday
7,25.95
8,33.59013326775559
9,33.76073121900902
96,48.96195672492729
2,3, 1, 3, 0,18, 0.00,60.00,Tuesday
7,25.925
8,33.33069746488057
9,33.768844113981717
96,48.92082455793904
2,3, 1, 3, 0,19, 0.00,60.00,Tuesday
7,25.874999999999998
8,31.935492998226857
9,32.5647969463063
96,52.36391422600744
2,3, 1, 3, 0,20, 0.00,60.00,Tuesday
7,25.425
8,29.93660750258499
9,30.469894655364166
96,58.98408891686997
2,3, 1, 3, 0,21, 0.00,60.00,Tuesday
7,24.8875
8,28.112507623903693
9,28.450979593773334
96,66.29167368333255
2,3, 1, 3, 0,22, 0.00,60.00,Tuesday
7,24.575
8,26.655921072882728
9,26.88112010499411
96,72.71537279236469
2,3, 1, 3, 0,23, 0.00,60.00,Tuesday
7,24.374999999999998
8,25.491355868785648
9,25.65898924786463
96,78.22600939744001
2,3, 1, 3, 0,24, 0.00,60.00,Tuesday
7,24.425
8,24.605845458946378
9,24.731479311813798
96,82.6876671122118
2,4, 1, 4, 0, 1, 0.00,60.00,Wednesday
7,24.312500000000005
8,23.997733763218478
9,24.101155618131768
96,85.86476125264392
2,4, 1, 4, 0, 2, 0.00,60.00,Wednesday
7,23.95
8,23.536688476246306
9,23.623809786161993
96,88.36392908712574
2,4, 1, 4, 0, 3, 0.00,60.00,Wednesday
7,23.7375
8,23.147157375048605
9,23.216766396980458
96,90.56026241894728
2,4, 1, 4, 0, 4, 0.00,60.00,Wednesday
7,23.512499999999997
8,22.791936767332197
9,22.86067376904691
96,92.53267777298662
2,4, 1, 4, 0, 5, 0.00,60.00,Wednesday
7,23.3375
8,22.430479053873879
9,22.503469295548269
96,94.5015189081736
2,4, 1, 4, 0, 6, 0.00,60.00,Wednesday
7,23.3
8,22.163164430180456
9,22.2115823307509
96,96.21710625721866
2,4, 1, 4, 0, 7, 0.00,60.00,Wednesday
7,23.425
8,22.283555732731807
9,22.284221987373333
96,95.82924731223062
2,4, 1, 4, 0, 8, 0.00,60.00,Wednesday
7,23.687499999999998
8,22.999682456232873
9,22.91956299966165
96,92.21505299280918
2,4, 1, 4, 0, 9, 0.00,60.00,Wednesday
7,24.425
8,24.583863205175989
9,24.480486080143196
96,83.98208920352103
2,4, 1, 4, 0,10, 0.00,60.00,Wednesday
7,25.425
8,26.553962463969346
9,26.51862939612751
96,74.41208229418763
2,4, 1, 4, 0,11, 0.00,60.00,Wednesday
7,25.987500000000006
8,28.358959053905538
9,28.383337673344543
96,66.70438389447856
2,4, 1, 4, 0,12, 0.00,60.00,Wednesday
7,26.225
8,29.86541508682089
9,29.89831717506521
96,61.06650171094485
2,4, 1, 4, 0,13, 0.00,60.00,Wednesday
7,26.8625
8,31.22498796428241
9,31.196209925136388
96,56.676976957533799
2,4, 1, 4, 0,14, 0.00,60.00,Wednesday
7,27.3875
8,32.64356183595317
9,32.54584715235216
96,52.50750248231567
2,4, 1, 4, 0,15, 0.00,60.00,Wednesday
7,27.062499999999998
8,33.62995610756408
9,33.597470336770907
96,49.460541284417448
2,4, 1, 4, 0,16, 0.00,60.00,Wednesday
7,26.1125
8,34.06215575413145
9,34.1569206719833
96,47.92039264463499
2,4, 1, 4, 0,17, 0.00,60.00,Wednesday
7,25.824999999999997
8,34.177452047622619
9,34.45232083441053
96,47.138896674953198
2,4, 1, 4, 0,18, 0.00,60.00,Wednesday
7,25.7125
8,33.76189630472202
9,34.219260731403597
96,47.756862658476048
2,4, 1, 4, 0,19, 0.00,60.00,Wednesday
7,25.4125
8,32.14835966683324
9,32.80985077548754
96,51.70941041673626
2,4, 1, 4, 0,20, 0.00,60.00,Wednesday
7,25.049999999999998
8,29.873654720072108
9,30.505738728673689
96,58.9699733718409
2,4, 1, 4, 0,21, 0.00,60.00,Wednesday
7,24.4625
8,27.907174905625625
9,28.30128319184684
96,66.96996048854042
2,4, 1, 4, 0,22, 0.00,60.00,Wednesday
7,24.2625
8,26.431810794007086
9,26.650229832973936
96,73.78212582075811
2,4, 1, 4, 0,23, 0.00,60.00,Wednesday
7,24.2375
8,25.339944474569877
9,25.486237796505408
96,79.1077863096737
2,4, 1, 4, 0,24, 0.00,60.00,Wednesday
7,24.137500000000004
8,24.4499587851637
9,24.571971289139783
96,83.56455754724598
2,5, 1, 5, 0, 1, 0.00,60.00,Thursday
7,23.7875
8,23.673620679788706
9,23.79494875888121
96,87.54913922890759
2,5, 1, 5, 0, 2, 0.00,60.00,Thursday
7,23.2875
8,22.97183380019708
9,23.102094907612974
96,91.28496068233422
2,5, 1, 5, 0, 3, 0.00,60.00,Thursday
7,23.0375
8,22.335742148857283
9,22.47159622868333
96,94.78194945698212
2,5, 1, 5, 0, 4, 0.00,60.00,Thursday
7,22.874999999999998
8,21.790244581532549
9,21.934811032768697
96,97.83288369027828
2,5, 1, 5, 0, 5, 0.00,60.00,Thursday
7,22.8
8,21.371097491258796
9,21.517163576108147
96,99.87075964234302
2,5, 1, 5, 0, 6, 0.00,60.00,Thursday
7,22.7375
8,21.197190493274346
9,21.29252461416165
96,99.7791089928474
2,5, 1, 5, 0, 7, 0.00,60.00,Thursday
7,22.7625
8,21.732149721111108
9,21.780612140674497
96,96.73177251791054
2,5, 1, 5, 0, 8, 0.00,60.00,Thursday
7,23.2375
8,22.99369976049502
9,23.079746597766829
96,89.46314306123021
2,5, 1, 5, 0, 9, 0.00,60.00,Thursday
7,24.6875
8,24.776954579091354
9,25.030757280634214
96,79.62938607946384
2,5, 1, 5, 0,10, 0.00,60.00,Thursday
7,25.775
8,26.785796872144858
9,27.018445083305818
96,70.81947896625627
2,5, 1, 5, 0,11, 0.00,60.00,Thursday
7,26.9375
8,28.834970345470415
9,29.003783802618487
96,63.041724011911089
2,5, 1, 5, 0,12, 0.00,60.00,Thursday
7,27.8125
8,30.708341066968396
9,30.824630858326388
96,56.75056086098066
2,5, 1, 5, 0,13, 0.00,60.00,Thursday
7,28.0
8,32.4409949439274
9,32.45307268982364
96,51.742789042257289
2,5, 1, 5, 0,14, 0.00,60.00,Thursday
7,27.874999999999998
8,34.23071775818561
9,34.13213171760118
96,47.099188253362118
2,5, 1, 5, 0,15, 0.00,60.00,Thursday
7,27.6125
8,35.92446853822673
9,35.80459352953349
96,42.90842179463634
2,5, 1, 5, 0,16, 0.00,60.00,Thursday
7,27.5
8,37.14928157883377
9,37.17151119899568
96,39.79442148868702
2,5, 1, 5, 0,17, 0.00,60.00,Thursday
7,27.062499999999998
8,37.713406576059487
9,37.96386125991015
96,38.090075747680518
2,5, 1, 5, 0,18, 0.00,60.00,Thursday
7,26.3
8,37.15279556560034
9,37.62459534580455
96,38.78694662097203
2,5, 1, 5, 0,19, 0.00,60.00,Thursday
7,25.562499999999998
8,35.16827257973714
9,35.80933866863721
96,42.8631566391951
2,5, 1, 5, 0,20, 0.00,60.00,Thursday
7,25.2375
8,32.46385092810835
9,33.01636529533912
96,50.10000215193976
2,5, 1, 5, 0,21, 0.00,60.00,Thursday
7,25.5125
8,30.087670414148275
9,30.514224143030078
96,57.72644510087596
2,5, 1, 5, 0,22, 0.00,60.00,Thursday
7,25.3875
8,28.286279920445489
9,28.514142644262884
96,64.75621846398872
2,5, 1, 5, 0,23, 0.00,60.00,Thursday
7,25.075
8,26.929008478749343
9,27.094986339855219
96,70.37856552451231
2,5, 1, 5, 0,24, 0.00,60.00,Thursday
7,24.9375
8,25.980830293332497
9,26.085460281473407
96,74.75470672623108
2,6, 1, 6, 0, 1, 0.00,60.00,Friday
7,24.775
8,25.27924324206597
9,25.366275385561616
96,78.03722352241198
2,6, 1, 6, 0, 2, 0.00,60.00,Friday
7,24.45
8,24.62446403425832
9,24.713612046292164
96,81.13187388912024
2,6, 1, 6, 0, 3, 0.00,60.00,Friday
7,23.9875
8,24.059269320185284
9,24.13838360524662
96,83.92087213189012
2,6, 1, 6, 0, 4, 0.00,60.00,Friday
7,23.4875
8,23.616309016794799
9,23.6853840412726
96,86.15101921844901
2,6, 1, 6, 0, 5, 0.00,60.00,Friday
7,23.2375
8,23.235158968786256
9,23.29781470002701
96,88.15513740330151
2,6, 1, 6, 0, 6, 0.00,60.00,Friday
7,23.075
8,22.92633454098745
9,22.970210281645433
96,89.91800056207596
2,6, 1, 6, 0, 7, 0.00,60.00,Friday
7,23.3125
8,22.889783032438634
9,22.882554660711358
96,90.39585839262432
2,6, 1, 6, 0, 8, 0.00,60.00,Friday
7,23.999999999999998
8,23.413133937374075
9,23.313026144173077
96,88.13693105670756
2,6, 1, 6, 0, 9, 0.00,60.00,Friday
7,24.7375
8,25.037861498047787
9,24.898342756514784
96,80.16658500843416
2,6, 1, 6, 0,10, 0.00,60.00,Friday
7,25.5625
8,27.302839746046386
9,27.13416369912784
96,70.26773366578262
2,6, 1, 6, 0,11, 0.00,60.00,Friday
7,26.7125
8,29.277477009368334
9,29.347199098448667
96,61.77344023989657
2,6, 1, 6, 0,12, 0.00,60.00,Friday
7,28.325
8,30.796654123214677
9,30.863753305714796
96,56.615379143737168
2,6, 1, 6, 0,13, 0.00,60.00,Friday
7,29.0
8,32.26540611523465
9,32.24278952146374
96,52.32369245710406
2,6, 1, 6, 0,14, 0.00,60.00,Friday
7,29.625
8,33.889438093825308
9,33.76594140902053
96,48.02149064908224
2,6, 1, 6, 0,15, 0.00,60.00,Friday
7,30.0625
8,35.72265524282946
9,35.571832606431957
96,43.42476247670469
2,6, 1, 6, 0,16, 0.00,60.00,Friday
7,30.0375
8,37.13766399194132
9,37.15997609926287
96,39.75645667189255
2,6, 1, 6, 0,17, 0.00,60.00,Friday
7,29.500000000000005
8,37.577404510791669
9,37.82798107966775
96,38.294630711198099
2,6, 1, 6, 0,18, 0.00,60.00,Friday
7,29.7
8,36.94475013758099
9,37.353493271278697
96,39.259067361977468
2,6, 1, 6, 0,19, 0.00,60.00,Friday
7,30.0
8,35.26888196549259
9,35.767193078111137
96,42.821466791588779
2,6, 1, 6, 0,20, 0.00,60.00,Friday
7,29.500000000000005
8,33.188198784546447
9,33.58486016099653
96,48.392691746886047
2,6, 1, 6, 0,21, 0.00,60.00,Friday
7,28.575
8,31.408594131347806
9,31.657102742573416
96,53.965181307290958
2,6, 1, 6, 0,22, 0.00,60.00,Friday
7,27.45
8,29.905170935713934
9,30.09752172052788
96,59.01634318983944
2,6, 1, 6, 0,23, 0.00,60.00,Friday
7,26.874999999999998
8,28.488672597793678
9,28.66738202999209
96,64.11156491347799
2,6, 1, 6, 0,24, 0.00,60.00,Friday
7,26.3
8,27.229254178161559
9,27.388158261636627
96,69.11028957152758
2,7, 1, 7, 0, 1, 0.00,60.00,Saturday
7,25.812500000000005
8,26.163727819647347
9,26.30170429686565
96,73.69040889464842
2,7, 1, 7, 0, 2, 0.00,60.00,Saturday
7,25.575
8,25.25868786075148
9,25.39663952113614
96,77.74524723041296
2,7, 1, 7, 0, 3, 0.00,60.00,Saturday
7,25.374999999999998
8,24.479663541643629
9,24.625302966802015
96,81.35063623205517
2,7, 1, 7, 0, 4, 0.00,60.00,Saturday
7,25.1125
8,23.791627855370697
9,23.948081767747057
96,84.68811980651509
2,7, 1, 7, 0, 5, 0.00,60.00,Saturday
7,25.0
8,23.182791276297434
9,23.35174106685426
96,87.78394241133063
2,7, 1, 7, 0, 6, 0.00,60.00,Saturday
7,24.874999999999998
8,22.77152711585357
9,22.9218708183571
96,90.09180621901352
2,7, 1, 7, 0, 7, 0.00,60.00,Saturday
7,24.925
8,23.111128935806467
9,23.235659649475527
96,88.40563023966428
2,7, 1, 7, 0, 8, 0.00,60.00,Saturday
7,25.0625
8,24.31066359996186
9,24.490964022540106
96,82.06680098535625
2,7, 1, 7, 0, 9, 0.00,60.00,Saturday
7,26.9125
8,26.116722124893906
9,26.504387108951904
96,72.8577545038434
2,7, 1, 7, 0,10, 0.00,60.00,Saturday
7,28.9375
8,28.26582761958384
9,28.61887077258927
96,64.37921971165236
2,7, 1, 7, 0,11, 0.00,60.00,Saturday
7,31.375
8,30.40607640513855
9,30.632910456263667
96,57.32535326296714
2,7, 1, 7, 0,12, 0.00,60.00,Saturday
7,32.8125
8,32.31524356048142
9,32.40460216583259
96,51.833192161277839
2,7, 1, 7, 0,13, 0.00,60.00,Saturday
7,33.0
8,34.019900597517978
9,33.967794001480978
96,47.48143371506556
2,7, 1, 7, 0,14, 0.00,60.00,Saturday
7,33.625
8,35.70194555751264
9,35.510018257876328
96,43.59338546008186
2,7, 1, 7, 0,15, 0.00,60.00,Saturday
7,34.0
8,37.38984645093725
9,37.180293109426539
96,39.7356025813007
2,7, 1, 7, 0,16, 0.00,60.00,Saturday
7,33.6875
8,38.88456515349501
9,38.78017572268428
96,36.386339926684239
2,7, 1, 7, 0,17, 0.00,60.00,Saturday
7,33.1875
8,39.908731774427597
9,39.997028555459099
96,34.07179620518309
2,7, 1, 7, 0,18, 0.00,60.00,Saturday
7,33.0
8,39.947732186397889
9,40.28240295816019
96,33.55509559699881
2,7, 1, 7, 0,19, 0.00,60.00,Saturday
7,32.0625
8,38.53708824192056
9,39.054870323864538
96,35.851770234762138
2,7, 1, 7, 0,20, 0.00,60.00,Saturday
7,30.5625
8,36.274902577884279
9,36.73524223568196
96,40.71282041918255
2,7, 1, 7, 0,21, 0.00,60.00,Saturday
7,28.875000000000005
8,33.94032053230253
9,34.34063120190305
96,46.47531843730583
2,7, 1, 7, 0,22, 0.00,60.00,Saturday
7,28.2
8,31.91837592817806
9,32.173199477128729
96,52.47118696416196
2,7, 1, 7, 0,23, 0.00,60.00,Saturday
7,28.7
8,30.440284388093255
9,30.583975090169763
96,57.447629419529288
2,7, 1, 7, 0,24, 0.00,60.00,Saturday
7,28.500000000000005
8,29.313318297350859
9,29.41900057104333
96,61.4379934607997
2,8, 1, 8, 0, 1, 0.00,60.00,Sunday
7,28.075
8,28.355990492003764
9,28.454334175120285
96,64.96199381929698
2,8, 1, 8, 0, 2, 0.00,60.00,Sunday
7,27.500000000000005
8,27.521431328056069
9,27.61848227129246
96,68.15987118654285
2,8, 1, 8, 0, 3, 0.00,60.00,Sunday
7,26.575
8,26.72543006786824
9,26.83197945727403
96,71.349254211302
2,8, 1, 8, 0, 4, 0.00,60.00,Sunday
7,26.075
8,25.931970205776357
9,26.047469221394328
96,74.72723221240891
2,8, 1, 8, 0, 5, 0.00,60.00,Sunday
7,26.0625
8,25.202704201265776
9,25.31971807027594
96,77.9729918320982
2,8, 1, 8, 0, 6, 0.00,60.00,Sunday
7,26.0375
8,24.66968490031512
9,24.759170480326064
96,80.58743822002364
2,8, 1, 8, 0, 7, 0.00,60.00,Sunday
7,26.5625
8,24.921930230873863
9,24.992769755959768
96,79.47832454856909
2,8, 1, 8, 0, 8, 0.00,60.00,Sunday
7,28.3375
8,26.141432692127759
9,26.30866043177037
96,73.59411596133197
2,8, 1, 8, 0, 9, 0.00,60.00,Sunday
7,29.324999999999997
8,28.02804020331265
9,28.367311744117538
96,65.3028994323085
2,8, 1, 8, 0,10, 0.00,60.00,Sunday
7,31.65
8,30.155185138893019
9,30.46825532714734
96,57.872605333555899
2,8, 1, 8, 0,11, 0.00,60.00,Sunday
7,33.625
8,32.055987011216618
9,32.27312875963146
96,52.217047163833139
2,8, 1, 8, 0,12, 0.00,60.00,Sunday
7,34.4375
8,33.670213128455859
9,33.72478878148644
96,48.09721513338369
2,8, 1, 8, 0,13, 0.00,60.00,Sunday
7,35.137499999999999
8,35.22400143889047
9,35.10565914825955
96,44.52932230083833
2,8, 1, 8, 0,14, 0.00,60.00,Sunday
7,36.0875
8,36.829503522398209
9,36.57319579560249
96,41.080555728673108
2,8, 1, 8, 0,15, 0.00,60.00,Sunday
7,36.875
8,38.523104850540068
9,38.2469874874359
96,37.51372326653751
2,8, 1, 8, 0,16, 0.00,60.00,Sunday
7,37.35
8,40.41645275255325
9,40.232863503525098
96,33.707840422093
2,8, 1, 8, 0,17, 0.00,60.00,Sunday
7,37.5
8,41.8872163068957
9,41.94876350666851
96,30.74103647331985
2,8, 1, 8, 0,18, 0.00,60.00,Sunday
7,36.9375
8,41.9263124380003
9,42.27297792507026
96,30.206445992657569
2,8, 1, 8, 0,19, 0.00,60.00,Sunday
7,34.0375
8,40.34164607961479
9,40.903276798118557
96,32.49035727709408
2,8, 1, 8, 0,20, 0.00,60.00,Sunday
7,31.8125
8,37.7632980027998
9,38.212979987065498
96,37.507934305782018
2,8, 1, 8, 0,21, 0.00,60.00,Sunday
7,30.9
8,35.23728081704341
9,35.6066614852787
96,43.232811856195997
2,8, 1, 8, 0,22, 0.00,60.00,Sunday
7,30.4125
8,33.13939737009106
9,33.465566560651087
96,48.73413836008525
2,8, 1, 8, 0,23, 0.00,60.00,Sunday
7,29.862500000000006
8,31.43569528634787
9,31.63408874432222
96,54.03240254439221
2,8, 1, 8, 0,24, 0.00,60.00,Sunday
7,29.225
8,30.00153071221808
9,30.18232420548522
96,58.72686124068093
2,9, 1, 9, 0, 1, 0.00,60.00,Monday
7,28.500000000000005
8,28.764077365256296
9,28.93063472252691
96,63.13585819913705
2,9, 1, 9, 0, 2, 0.00,60.00,Monday
7,28.2
8,27.7057018239681
9,27.85414657570801
96,67.20672262393248
2,9, 1, 9, 0, 3, 0.00,60.00,Monday
7,27.8875
8,26.79296135791359
9,26.943861259077143
96,70.83856445668875
2,9, 1, 9, 0, 4, 0.00,60.00,Monday
7,27.45
8,25.98787002694038
9,26.14577819349365
96,74.22015907643953
2,9, 1, 9, 0, 5, 0.00,60.00,Monday
7,27.1125
8,25.27843918700328
9,25.44114388276654
96,77.38312093996069
2,9, 1, 9, 0, 6, 0.00,60.00,Monday
7,26.874999999999998
8,24.759487234260484
9,24.89424283526042
96,79.94043538256716
2,9, 1, 9, 0, 7, 0.00,60.00,Monday
7,27.3625
8,24.989176008309767
9,25.103295639381643
96,79.00475103480102
2,9, 1, 9, 0, 8, 0.00,60.00,Monday
7,29.699999999999997
8,26.201291719649956
9,26.36744167990959
96,73.36318667231714
2,9, 1, 9, 0, 9, 0.00,60.00,Monday
7,31.275
8,28.088016782934809
9,28.37074119804487
96,65.24698499744192
2,9, 1, 9, 0,10, 0.00,60.00,Monday
7,32.875
8,30.104794495834068
9,30.312201532414897
96,58.32647833298595
2,9, 1, 9, 0,11, 0.00,60.00,Monday
7,34.5125
8,31.873435981091896
9,31.92361349543714
96,53.20255894621443
2,9, 1, 9, 0,12, 0.00,60.00,Monday
7,35.1875
8,33.21458934655659
9,33.1387525146739
96,49.6765419955863
2,9, 1, 9, 0,13, 0.00,60.00,Monday
7,35.800000000000007
8,34.479032161177617
9,34.24482523862582
96,46.70281082993746
2,9, 1, 9, 0,14, 0.00,60.00,Monday
7,35.725
8,36.010768501989129
9,35.68637761241165
96,43.1295555590142
2,9, 1, 9, 0,15, 0.00,60.00,Monday
7,34.875
8,37.648175278729997
9,37.35662111259657
96,39.316706033167047
2,9, 1, 9, 0,16, 0.00,60.00,Monday
7,35.375
8,39.09760209824723
9,38.963809624693158
96,36.016038077764708
2,9, 1, 9, 0,17, 0.00,60.00,Monday
7,35.15
8,40.048054216474877
9,40.166891364085888
96,33.743225016612878
2,9, 1, 9, 0,18, 0.00,60.00,Monday
7,34.1375
8,39.92047158152596
9,40.30110241528665
96,33.46830261098274
2,9, 1, 9, 0,19, 0.00,60.00,Monday
7,33.4875
8,38.347568173752168
9,38.952980926756037
96,35.97977261859495
2,9, 1, 9, 0,20, 0.00,60.00,Monday
7,32.9875
8,36.011341478331697
9,36.50376050562106
96,41.11564574109871
2,9, 1, 9, 0,21, 0.00,60.00,Monday
7,32.050000000000007
8,33.92281696424391
9,34.3034155194908
96,46.435361138783758
2,9, 1, 9, 0,22, 0.00,60.00,Monday
7,30.9125
8,32.213577524684037
9,32.435366321514099
96,51.56925923211148
2,9, 1, 9, 0,23, 0.00,60.00,Monday
7,30.5
8,30.82137776741645
9,31.010529614904724
96,55.95474428149636
2,9, 1, 9, 0,24, 0.00,60.00,Monday
7,30.5
8,29.675767990217886
9,29.836071963173866
96,59.86194404976626
2,10, 1,10, 0, 1, 0.00,60.00,Tuesday
7,30.1875
8,28.685667189714065
9,28.838314350910485
96,63.44604364716375
2,10, 1,10, 0, 2, 0.00,60.00,Tuesday
7,29.625
8,27.825089163655258
9,27.974448863764434
96,66.69206603745956
2,10, 1,10, 0, 3, 0.00,60.00,Tuesday
7,29.3375
8,27.086790530365329
9,27.22794975736862
96,69.63927805705319
2,10, 1,10, 0, 4, 0.00,60.00,Tuesday
7,29.1125
8,26.473338038693727
9,26.59805950269945
96,72.26312715719756
2,10, 1,10, 0, 5, 0.00,60.00,Tuesday
7,28.9375
8,25.964759432673654
9,26.082916596879927
96,74.49254635893532
2,10, 1,10, 0, 6, 0.00,60.00,Tuesday
7,27.9625
8,25.577207233490215
9,25.680998949076338
96,76.28473381532993
2,10, 1,10, 0, 7, 0.00,60.00,Tuesday
7,27.15
8,25.79644036357038
9,25.89844203260483
96,75.31254672423006
2,10, 1,10, 0, 8, 0.00,60.00,Tuesday
7,27.3125
8,26.800239850853829
9,26.981101596683215
96,70.67707325863464
2,10, 1,10, 0, 9, 0.00,60.00,Tuesday
7,27.8125
8,28.315010302122958
9,28.663681930556714
96,64.07181549072804
2,10, 1,10, 0,10, 0.00,60.00,Tuesday
7,28.625
8,30.111879523893028
9,30.42824094576175
96,57.917559175828369
2,10, 1,10, 0,11, 0.00,60.00,Tuesday
7,30.25
8,31.96891644530102
9,32.19252601167726
96,52.43864034601544
2,10, 1,10, 0,12, 0.00,60.00,Tuesday
7,32.25
8,33.670506295143749
9,33.77716631382488
96,47.98839949849669
2,10, 1,10, 0,13, 0.00,60.00,Tuesday
7,32.375
8,35.18155559159508
9,35.170065696110558
96,44.4134092271082
2,10, 1,10, 0,14, 0.00,60.00,Tuesday
7,32.0
8,36.52697091150455
9,36.38248768091601
96,41.54704461070312
2,10, 1,10, 0,15, 0.00,60.00,Tuesday
7,31.375
8,37.78239863675249
9,37.652814788258357
96,38.74454089646364
2,10, 1,10, 0,16, 0.00,60.00,Tuesday
7,30.6875
8,38.560332908982
9,38.59263260797602
96,36.783266186322567
2,10, 1,10, 0,17, 0.00,60.00,Tuesday
7,30.5
8,38.650127167501377
9,38.87989982231478
96,36.18135698675632
2,10, 1,10, 0,18, 0.00,60.00,Tuesday
7,30.5
8,37.96017976619836
9,38.40351289731105
96,37.11159374385531
2,10, 1,10, 0,19, 0.00,60.00,Tuesday
7,30.1875
8,36.20583735391681
9,36.83838146493913
96,40.395479691182178
2,10, 1,10, 0,20, 0.00,60.00,Tuesday
7,28.75
8,33.86893631029966
9,34.371109709839867
96,46.3292402429295
2,10, 1,10, 0,21, 0.00,60.00,Tuesday
7,27.874999999999998
8,31.74587185094577
9,32.11887957422286
96,52.62483129552798
2,10, 1,10, 0,22, 0.00,60.00,Tuesday
7,27.7375
8,29.985315865148438
9,30.227866170258119
96,58.63989007897483
2,10, 1,10, 0,23, 0.00,60.00,Tuesday
7,27.075
8,28.531544163539686
9,28.731236330575599
96,63.93771055888335
2,10, 1,10, 0,24, 0.00,60.00,Tuesday
7,26.3875
8,27.280298573975516
9,27.457457600238578
96,68.89912384516703
2,11, 1,11, 0, 1, 0.00,60.00,Wednesday
7,25.95
8,26.206891913462898
9,26.357512413958909
96,73.47519616474746
2,11, 1,11, 0, 2, 0.00,60.00,Wednesday
7,25.675000000000006
8,25.297420940228759
9,25.442423970283316
96,77.53425714559623
2,11, 1,11, 0, 3, 0.00,60.00,Wednesday
7,25.4125
8,24.512825250813024
9,24.657225835790237
96,81.2465025247896
2,11, 1,11, 0, 4, 0.00,60.00,Wednesday
7,24.675
8,23.840122475934938
9,23.9864432233291
96,84.57644976267705
2,11, 1,11, 0, 5, 0.00,60.00,Wednesday
7,24.175000000000006
8,23.272011128099075
9,23.416481047090973
96,87.52797667833096
2,11, 1,11, 0, 6, 0.00,60.00,Wednesday
7,24.0375
8,22.865246989077744
9,22.97451127620354
96,89.89459341473568
2,11, 1,11, 0, 7, 0.00,60.00,Wednesday
7,24.187499999999998
8,23.162381777848255
9,23.257600336645916
96,88.4309364680471
2,11, 1,11, 0, 8, 0.00,60.00,Wednesday
7,25.4875
8,24.33719845785555
9,24.483179388270245
96,82.21804773839546
2,11, 1,11, 0, 9, 0.00,60.00,Wednesday
7,26.450000000000004
8,26.237097539193415
9,26.536640787500848
96,72.7919169195455
2,11, 1,11, 0,10, 0.00,60.00,Wednesday
7,26.85
8,28.346351163553558
9,28.625253433118958
96,64.45550242739907
2,11, 1,11, 0,11, 0.00,60.00,Wednesday
7,27.6875
8,30.10860939107629
9,30.33335406362427
96,58.417279638644249
2,11, 1,11, 0,12, 0.00,60.00,Wednesday
7,27.9125
8,31.40383047894377
9,31.503707117419937
96,54.60465657953658
2,11, 1,11, 0,13, 0.00,60.00,Wednesday
7,28.487499999999998
8,32.65702080503252
9,32.5597539152555
96,51.421810433279258
2,11, 1,11, 0,14, 0.00,60.00,Wednesday
7,28.7125
8,33.75648203720307
9,33.58847298714039
96,48.50478610985379
2,11, 1,11, 0,15, 0.00,60.00,Wednesday
7,28.6
8,34.331524076381388
9,34.19049248235854
96,46.85269912592361
2,11, 1,11, 0,16, 0.00,60.00,Wednesday
7,28.6625
8,34.54796569937463
9,34.459179053695788
96,46.14050837669994
2,11, 1,11, 0,17, 0.00,60.00,Wednesday
7,28.637500000000004
8,34.65125281792969
9,34.685464593640848
96,45.536370181627038
2,11, 1,11, 0,18, 0.00,60.00,Wednesday
7,28.475
8,34.16944234300143
9,34.400939782256447
96,46.24738500867391
2,11, 1,11, 0,19, 0.00,60.00,Wednesday
7,28.3375
8,32.730811583137647
9,33.13884531857836
96,49.64604372024755
2,11, 1,11, 0,20, 0.00,60.00,Wednesday
7,28.1125
8,30.8794770607407
9,31.211021216590198
96,55.390037135326867
2,11, 1,11, 0,21, 0.00,60.00,Wednesday
7,28.0
8,29.319465969594839
9,29.547658383250746
96,60.93316804425402
2,11, 1,11, 0,22, 0.00,60.00,Wednesday
7,27.0625
8,28.06085098935983
9,28.23820255364075
96,65.76625697576877
2,11, 1,11, 0,23, 0.00,60.00,Wednesday
7,26.5
8,26.983018904164699
9,27.12728393809866
96,70.24005708606663
2,11, 1,11, 0,24, 0.00,60.00,Wednesday
7,26.5
8,26.04738247819725
9,26.186882518499617
96,74.26293462894179