Program Version,EnergyPlus, Version 8.9.0-40101eaafd, YMD=2025.08.26 13:58
1,5,Environment Title[],Latitude[deg],Longitude[deg],Time Zone[],Elevation[m]
2,8,Day of Simulation[],Month[],Day of Month[],DST Indicator[1=yes 0=no],Hour[],StartMinute[],EndMinute[],DayType
3,5,Cumulative Day of Simulation[],Month[],Day of Month[],DST Indicator[1=yes 0=no],DayType  ! When Daily Report Variables Requested
4,2,Cumulative Days of Simulation[],Month[]  ! When Monthly Report Variables Requested
5,1,Cumulative Days of Simulation[] ! When Run Period Report Variables Requested
6,1,Calendar Year of Simulation[] ! When Annual Report Variables Requested
7,1,Environment,Site Outdoor Air Drybulb Temperature [C] !Hourly
8,1,ZONE DEFAULT,Zone Mean Radiant Temperature [C] !Hourly
9,1,ZONE DEFAULT,Zone Mean Air Temperature [C] !Hourly
96,1,ZONE DEFAULT,Zone Air Relative Humidity [%] !Hourly
End of Data Dictionary
1,TROPOS3D MODEL, -15.87, -47.93,  -3.00,1061.00
2,1, 1, 1, 0, 1, 0.00,60.00,Sunday
7,19.05
8,20.390728010384806
9,20.56305706103598
96,83.25834411875883
2,1, 1, 1, 0, 2, 0.00,60.00,Sunday
7,18.95
8,19.5358502915109
9,19.623901164053689
96,88.32504328401666
2,1, 1, 1, 0, 3, 0.00,60.00,Sunday
7,18.4875
8,19.024307225087275
9,19.099115165316048
96,91.35687741426547
2,1, 1, 1, 0, 4, 0.00,60.00,Sunday
7,18.05
8,18.59265546383974
9,18.6539795861273
96,93.97274838969507
2,1, 1, 1, 0, 5, 0.00,60.00,Sunday
7,17.65
8,18.19060761862329
9,18.21390601637497
96,96.60168983094252
2,1, 1, 1, 0, 6, 0.00,60.00,Sunday
7,17.375
8,17.84266999978149
9,17.830157433758804
96,98.96023424520893
2,1, 1, 1, 0, 7, 0.00,60.00,Sunday
7,17.7375
8,17.935603370417284
9,17.846976181142808
96,98.85632689276098
2,1, 1, 1, 0, 8, 0.00,60.00,Sunday
7,19.25
8,18.9881381895216
9,18.83005774714541
96,92.98901955522746
2,1, 1, 1, 0, 9, 0.00,60.00,Sunday
7,20.0
8,20.96684351414622
9,20.964347169871809
96,81.51662764896513
2,1, 1, 1, 0,10, 0.00,60.00,Sunday
7,23.125
8,23.46784245441659
9,23.673787735203726
96,69.1338806914183
2,1, 1, 1, 0,11, 0.00,60.00,Sunday
7,26.25
8,26.19157205929869
9,26.309399250405578
96,59.070250227414899
2,1, 1, 1, 0,12, 0.00,60.00,Sunday
7,28.5625
8,28.78888809996801
9,28.714235420782523
96,51.300916971154268
2,1, 1, 1, 0,13, 0.00,60.00,Sunday
7,29.8125
8,31.17806021134107
9,31.038601682292538
96,44.85426928621139
2,1, 1, 1, 0,14, 0.00,60.00,Sunday
7,24.375
8,33.00850058681475
9,32.877869511943718
96,40.33048119474746
2,1, 1, 1, 0,15, 0.00,60.00,Sunday
7,21.375
8,32.953379602358058
9,33.06756631064477
96,39.84794968283692
2,1, 1, 1, 0,16, 0.00,60.00,Sunday
7,23.725
8,29.253392419775549
9,29.88570793166654
96,47.78413869184918
2,1, 1, 1, 0,17, 0.00,60.00,Sunday
7,26.25
8,27.41100699818009
9,27.55961408131656
96,54.496471551875668
2,1, 1, 1, 0,18, 0.00,60.00,Sunday
7,26.75
8,27.188690646217258
9,27.159283419740594
96,55.711976105904927
2,1, 1, 1, 0,19, 0.00,60.00,Sunday
7,25.6
8,26.69018213740063
9,26.724676026028086
96,57.17249050377983
2,1, 1, 1, 0,20, 0.00,60.00,Sunday
7,24.375
8,25.88268512574188
9,25.952395419830798
96,59.86624609404274
2,1, 1, 1, 0,21, 0.00,60.00,Sunday
7,23.500000000000005
8,25.00425399965608
9,25.088605511623198
96,63.06171937526936
2,1, 1, 1, 0,22, 0.00,60.00,Sunday
7,23.075
8,24.182881185725838
9,24.27636233685126
96,66.27131933346395
2,1, 1, 1, 0,23, 0.00,60.00,Sunday
7,21.75
8,23.24558647279359
9,23.403019748019945
96,69.8802707534152
2,1, 1, 1, 0,24, 0.00,60.00,Sunday
7,19.625
8,21.77039347811985
9,21.969836622308067
96,76.30202484971588
2,2, 1, 2, 0, 1, 0.00,60.00,Monday
7,18.925
8,20.39793724160794
9,20.571222347418737
96,83.09798016583251
2,2, 1, 2, 0, 2, 0.00,60.00,Monday
7,18.375
8,19.49103150210737
9,19.613267937046737
96,88.12460776924718
2,2, 1, 2, 0, 3, 0.00,60.00,Monday
7,18.125
8,18.899519937191454
9,19.004603125169873
96,91.52465466551584
2,2, 1, 2, 0, 4, 0.00,60.00,Monday
7,18.075
8,18.459881822540127
9,18.553545584052555
96,94.14156980075282
2,2, 1, 2, 0, 5, 0.00,60.00,Monday
7,18.0
8,18.105526459608297
9,18.171402874335944
96,96.42539579517193
2,2, 1, 2, 0, 6, 0.00,60.00,Monday
7,18.625
8,17.8387038034207
9,17.87833272304841
96,98.28674177207926
2,2, 1, 2, 0, 7, 0.00,60.00,Monday
7,19.0
8,17.745054945728265
9,17.738128548601073
96,99.19989561702326
2,2, 1, 2, 0, 8, 0.00,60.00,Monday
7,19.625
8,18.17785812030211
9,18.065140961025919
96,97.18662938364538
2,2, 1, 2, 0, 9, 0.00,60.00,Monday
7,21.0
8,19.358017975229435
9,19.209074163690848
96,90.57498855966159
2,2, 1, 2, 0,10, 0.00,60.00,Monday
7,23.2875
8,21.590356258409807
9,21.479822974894863
96,78.76907500992594
2,2, 1, 2, 0,11, 0.00,60.00,Monday
7,25.9875
8,24.530023985890798
9,24.43144443676295
96,65.80568778059163
2,2, 1, 2, 0,12, 0.00,60.00,Monday
7,27.499999999999998
8,27.238584026406959
9,27.112432799797486
96,56.04023041113598
2,2, 1, 2, 0,13, 0.00,60.00,Monday
7,27.3
8,29.14215316997911
9,29.063225222541779
96,49.97421565866451
2,2, 1, 2, 0,14, 0.00,60.00,Monday
7,27.625
8,30.53633364963707
9,30.372504872479249
96,46.309646183025467
2,2, 1, 2, 0,15, 0.00,60.00,Monday
7,25.5
8,31.521486040495028
9,31.37469815981624
96,43.68228212530757
2,2, 1, 2, 0,16, 0.00,60.00,Monday
7,23.375
8,31.875533128013197
9,31.78576137303679
96,42.653753518026189
2,2, 1, 2, 0,17, 0.00,60.00,Monday
7,24.25
8,32.067879105521317
9,31.982843943377163
96,42.15106429695158
2,2, 1, 2, 0,18, 0.00,60.00,Monday
7,24.6875
8,31.696785820850804
9,31.73204145963266
96,42.70827181271079
2,2, 1, 2, 0,19, 0.00,60.00,Monday
7,24.1875
8,30.511254934458994
9,30.63734259956771
96,45.47753746199075
2,2, 1, 2, 0,20, 0.00,60.00,Monday
7,23.375
8,29.00655596498453
9,29.13034281072124
96,49.648224505826437
2,2, 1, 2, 0,21, 0.00,60.00,Monday
7,22.625
8,27.32460629233372
9,27.492108410151894
96,54.68596100567932
2,2, 1, 2, 0,22, 0.00,60.00,Monday
7,20.9
8,24.75092892461486
9,25.064558753414518
96,63.18477044403839
2,2, 1, 2, 0,23, 0.00,60.00,Monday
7,19.375
8,22.370919478130106
9,22.72598576128221
96,72.67757605173012
2,2, 1, 2, 0,24, 0.00,60.00,Monday
7,19.25
8,20.633798680096754
9,20.9462736107009
96,81.00988283778449
2,3, 1, 3, 0, 1, 0.00,60.00,Tuesday
7,19.775
8,19.73140605326995
9,19.850221724452078
96,86.641022907794
2,3, 1, 3, 0, 2, 0.00,60.00,Tuesday
7,19.375
8,19.257821872374718
9,19.33883937243631
96,89.43498557147709
2,3, 1, 3, 0, 3, 0.00,60.00,Tuesday
7,19.125
8,18.76271135279909
9,18.86599713280658
96,92.11174262703517
2,3, 1, 3, 0, 4, 0.00,60.00,Tuesday
7,19.075
8,18.429616048633755
9,18.50817598273766
96,94.1959023929752
2,3, 1, 3, 0, 5, 0.00,60.00,Tuesday
7,19.0
8,18.18274159195447
9,18.226760661095175
96,95.94103890927227
2,3, 1, 3, 0, 6, 0.00,60.00,Tuesday
7,19.0625
8,18.006463935119016
9,18.004440039478884
96,97.33103961502119
2,3, 1, 3, 0, 7, 0.00,60.00,Tuesday
7,19.0375
8,18.073714176630646
9,18.031057475041288
96,97.23656921858673
2,3, 1, 3, 0, 8, 0.00,60.00,Tuesday
7,19.625
8,18.326120270632047
9,18.2781167433374
96,95.84858000695954
2,3, 1, 3, 0, 9, 0.00,60.00,Tuesday
7,19.875
8,18.734391966048265
9,18.70595224015789
96,93.3531707355066
2,3, 1, 3, 0,10, 0.00,60.00,Tuesday
7,20.55
8,19.256226600247169
9,19.245999043323317
96,90.26273436788863
2,3, 1, 3, 0,11, 0.00,60.00,Tuesday
7,22.25
8,20.237563508590069
9,20.152634938025885
96,85.32612224841081
2,3, 1, 3, 0,12, 0.00,60.00,Tuesday
7,21.4375
8,20.57353676259826
9,20.606327206428177
96,82.95710649271388
2,3, 1, 3, 0,13, 0.00,60.00,Tuesday
7,22.0625
8,20.432786293514146
9,20.51079519206375
96,83.39036782654327
2,3, 1, 3, 0,14, 0.00,60.00,Tuesday
7,23.0
8,21.454886183552497
9,21.304337931612218
96,79.40771769144301
2,3, 1, 3, 0,15, 0.00,60.00,Tuesday
7,21.375
8,22.666848973750424
9,22.58257521159405
96,73.37816472179904
2,3, 1, 3, 0,16, 0.00,60.00,Tuesday
7,20.15
8,21.71527681868652
9,21.9250127235941
96,76.36077914847904
2,3, 1, 3, 0,17, 0.00,60.00,Tuesday
7,20.625
8,21.328644727749656
9,21.29540467575946
96,79.28128665353876
2,3, 1, 3, 0,18, 0.00,60.00,Tuesday
7,21.0
8,21.55252585994647
9,21.53979742266403
96,78.069681256749
2,3, 1, 3, 0,19, 0.00,60.00,Tuesday
7,20.375
8,21.331096841355149
9,21.385574715278119
96,78.81266533246313
2,3, 1, 3, 0,20, 0.00,60.00,Tuesday
7,20.0
8,20.801370176859604
9,20.885011449099826
96,81.27444295926637
2,3, 1, 3, 0,21, 0.00,60.00,Tuesday
7,19.75
8,20.220674593363257
9,20.319079610413959
96,84.22037053062889
2,3, 1, 3, 0,22, 0.00,60.00,Tuesday
7,19.85
8,19.684190408677695
9,19.798743587013307
96,87.0129546627742
2,3, 1, 3, 0,23, 0.00,60.00,Tuesday
7,20.0
8,19.203962311314933
9,19.311489068558897
96,89.75215825139486
2,3, 1, 3, 0,24, 0.00,60.00,Tuesday
7,19.875
8,18.76808855377887
9,18.840434331606205
96,92.46733068401707
2,4, 1, 4, 0, 1, 0.00,60.00,Wednesday
7,19.925
8,18.379273735431384
9,18.40284632252017
96,95.0350530686594
2,4, 1, 4, 0, 2, 0.00,60.00,Wednesday
7,20.0
8,18.045376955888885
9,18.01703861534491
96,97.36520221757567
2,4, 1, 4, 0, 3, 0.00,60.00,Wednesday
7,19.5
8,17.741824980459059
9,17.693092227168529
96,99.34454814255062
2,4, 1, 4, 0, 4, 0.00,60.00,Wednesday
7,19.075
8,17.44841270458091
9,17.388857889647626
96,100.0
2,4, 1, 4, 0, 5, 0.00,60.00,Wednesday
7,19.0
8,17.176664571773097
9,17.107801678424779
96,100.0
2,4, 1, 4, 0, 6, 0.00,60.00,Wednesday
7,19.125
8,16.98024003652403
9,16.889552575464245
96,100.0
2,4, 1, 4, 0, 7, 0.00,60.00,Wednesday
7,19.075
8,17.011497037477946
9,16.87835207622425
96,99.71471101590766
2,4, 1, 4, 0, 8, 0.00,60.00,Wednesday
7,19.625
8,17.562954102490055
9,17.372817174068673
96,96.659149548495
2,4, 1, 4, 0, 9, 0.00,60.00,Wednesday
7,21.25
8,18.753424967826019
9,18.54281599248689
96,89.83111720278859
2,4, 1, 4, 0,10, 0.00,60.00,Wednesday
7,23.25
8,20.47759642856854
9,20.39138986072107
96,80.08987894867419
2,4, 1, 4, 0,11, 0.00,60.00,Wednesday
7,24.625
8,22.449489070252896
9,22.35878256090793
96,71.0351403094134
2,4, 1, 4, 0,12, 0.00,60.00,Wednesday
7,25.875
8,24.436416334150019
9,24.26831681246052
96,63.32447579835104
2,4, 1, 4, 0,13, 0.00,60.00,Wednesday
7,26.15
8,26.156336646906455
9,25.969432738903273
96,57.17059096215563
2,4, 1, 4, 0,14, 0.00,60.00,Wednesday
7,26.625
8,27.537700808877785
9,27.34608461524828
96,52.65450619568428
2,4, 1, 4, 0,15, 0.00,60.00,Wednesday
7,27.625
8,28.701795264266936
9,28.526177908388996
96,49.0947902950991
2,4, 1, 4, 0,16, 0.00,60.00,Wednesday
7,28.0
8,29.547580421246577
9,29.417179056236095
96,46.57020286714089
2,4, 1, 4, 0,17, 0.00,60.00,Wednesday
7,27.375
8,29.773533596476619
9,29.73024651580657
96,45.6835429698665
2,4, 1, 4, 0,18, 0.00,60.00,Wednesday
7,26.4375
8,29.33808726933318
9,29.37311800246486
96,46.583162445488088
2,4, 1, 4, 0,19, 0.00,60.00,Wednesday
7,25.4125
8,28.374545902707859
9,28.458087810172129
96,49.136921487252937
2,4, 1, 4, 0,20, 0.00,60.00,Wednesday
7,23.75
8,27.152496369031785
9,27.287370564906245
96,52.67429155177943
2,4, 1, 4, 0,21, 0.00,60.00,Wednesday
7,21.75
8,25.8879661659877
9,26.012079203236455
96,56.843614259502398
2,4, 1, 4, 0,22, 0.00,60.00,Wednesday
7,21.625
8,24.320442059013297
9,24.522985818062126
96,62.1606404001666
2,4, 1, 4, 0,23, 0.00,60.00,Wednesday
7,22.0
8,21.730624680753086
9,22.133858200846249
96,71.86389756436026
2,4, 1, 4, 0,24, 0.00,60.00,Wednesday
7,22.0
8,20.335548298562629
9,20.52995852000711
96,79.27608403146994
2,5, 1, 5, 0, 1, 0.00,60.00,Thursday
7,22.0
8,19.851103457691385
9,19.947587184044936
96,82.17143473260345
2,5, 1, 5, 0, 2, 0.00,60.00,Thursday
7,21.375
8,19.53019840882561
9,19.62874145083089
96,83.75395611376615
2,5, 1, 5, 0, 3, 0.00,60.00,Thursday
7,21.0
8,19.234784296342285
9,19.322083502918525
96,85.33067463182643
2,5, 1, 5, 0, 4, 0.00,60.00,Thursday
7,21.0
8,18.960344956621694
9,19.02489069189017
96,86.92617933746225
2,5, 1, 5, 0, 5, 0.00,60.00,Thursday
7,21.0
8,18.734168370985473
9,18.769046177515397
96,88.38872344446122
2,5, 1, 5, 0, 6, 0.00,60.00,Thursday
7,21.0
8,18.562933199376645
9,18.5671497678631
96,89.55000267820719
2,5, 1, 5, 0, 7, 0.00,60.00,Thursday
7,21.0
8,18.53370123588817
9,18.499763454562236
96,89.92852003693928
2,5, 1, 5, 0, 8, 0.00,60.00,Thursday
7,21.625
8,18.85268904343337
9,18.795460694240444
96,88.34547918801265
2,5, 1, 5, 0, 9, 0.00,60.00,Thursday
7,22.625
8,19.597892922002545
9,19.55301380732884
96,84.31605318012503
2,5, 1, 5, 0,10, 0.00,60.00,Thursday
7,24.25
8,20.88105899212625
9,20.81132010732343
96,78.0277700571948
2,5, 1, 5, 0,11, 0.00,60.00,Thursday
7,25.0
8,22.67679369756212
9,22.570983621619587
96,70.07198356305173
2,5, 1, 5, 0,12, 0.00,60.00,Thursday
7,25.625
8,24.548040874292963
9,24.380977014876345
96,62.77967094872593
2,5, 1, 5, 0,13, 0.00,60.00,Thursday
7,26.0
8,26.26928020212664
9,26.064789136058388
96,56.724130665752358
2,5, 1, 5, 0,14, 0.00,60.00,Thursday
7,25.375
8,27.753318933150199
9,27.54555254966811
96,51.96344160628718
2,5, 1, 5, 0,15, 0.00,60.00,Thursday
7,26.124999999999998
8,28.788832980514319
9,28.632144926003425
96,48.73531451692181
2,5, 1, 5, 0,16, 0.00,60.00,Thursday
7,26.925
8,29.3794181293623
9,29.267181615144339
96,46.920134225714068
2,5, 1, 5, 0,17, 0.00,60.00,Thursday
7,27.0
8,29.43086789240455
9,29.395057159148604
96,46.5544646951021
2,5, 1, 5, 0,18, 0.00,60.00,Thursday
7,27.0
8,28.945252617814867
9,28.974963173722963
96,47.70064471779412
2,5, 1, 5, 0,19, 0.00,60.00,Thursday
7,25.75
8,28.04460778260315
9,28.12121726065958
96,50.12857479412266
2,5, 1, 5, 0,20, 0.00,60.00,Thursday
7,24.375
8,26.888898984296458
9,27.016785963187055
96,53.51286737258509
2,5, 1, 5, 0,21, 0.00,60.00,Thursday
7,23.500000000000005
8,25.721739517329639
9,25.839749147759706
96,57.42334753181861
2,5, 1, 5, 0,22, 0.00,60.00,Thursday
7,23.075
8,24.684628534467096
9,24.78884791468742
96,61.148983995924947
2,5, 1, 5, 0,23, 0.00,60.00,Thursday
7,22.375
8,23.80105138821282
9,23.90146971538085
96,64.48544119280409
2,5, 1, 5, 0,24, 0.00,60.00,Thursday
7,22.0
8,23.035947298950665
9,23.13973353709475
96,67.51436881962745
2,6, 1, 6, 0, 1, 0.00,60.00,Friday
7,22.0
8,22.24141255137016
9,22.37614674644673
96,70.71844943321705
2,6, 1, 6, 0, 2, 0.00,60.00,Friday
7,21.375
8,21.09127103468721
9,21.294511624393946
96,75.55742562531056
2,6, 1, 6, 0, 3, 0.00,60.00,Friday
7,21.25
8,20.3174486108027
9,20.419710624752235
96,79.71931532601455
2,6, 1, 6, 0, 4, 0.00,60.00,Friday
7,20.525
8,19.882718671329934
9,19.98656706248979
96,81.9391436281056
2,6, 1, 6, 0, 5, 0.00,60.00,Friday
7,19.75
8,19.488802767256528
9,19.58566323233437
96,84.03897476805568
2,6, 1, 6, 0, 6, 0.00,60.00,Friday
7,19.349999999999999
8,19.165766161766446
9,19.23603531868584
96,85.94607139077078
2,6, 1, 6, 0, 7, 0.00,60.00,Friday
7,19.075
8,18.950533752570494
9,19.00773314370484
96,87.2149715134385
2,6, 1, 6, 0, 8, 0.00,60.00,Friday
7,19.0
8,18.936871489403765
9,18.944006666921167
96,87.62364303123553
2,6, 1, 6, 0, 9, 0.00,60.00,Friday
7,20.0
8,19.003970546450434
9,19.02985025970664
96,87.25390797626798
2,6, 1, 6, 0,10, 0.00,60.00,Friday
7,21.475
8,19.636374838379269
9,19.57820165574685
96,84.31215979825069
2,6, 1, 6, 0,11, 0.00,60.00,Friday
7,22.625
8,20.83284970369609
9,20.680054398810048
96,78.73497212132694
2,6, 1, 6, 0,12, 0.00,60.00,Friday
7,23.375
8,22.18897019672571
9,22.038333690334903
96,72.44546254856833
2,6, 1, 6, 0,13, 0.00,60.00,Friday
7,23.225
8,23.574720435266494
9,23.39997126056211
96,66.65456091869015
2,6, 1, 6, 0,14, 0.00,60.00,Friday
7,23.0
8,25.02439889552857
9,24.813133452585498
96,61.21006065846092
2,6, 1, 6, 0,15, 0.00,60.00,Friday
7,22.6875
8,26.385036883476344
9,26.182495099548416
96,56.384628021528147
2,6, 1, 6, 0,16, 0.00,60.00,Friday
7,24.0625
8,27.45332845824287
9,27.302964057407367
96,52.72255032540554
2,6, 1, 6, 0,17, 0.00,60.00,Friday
7,25.0
8,28.135608413130475
9,28.053310740395767
96,50.39934093252682
2,6, 1, 6, 0,18, 0.00,60.00,Friday
7,25.0
8,28.17596557697712
9,28.200145382293763
96,49.94758510923612
2,6, 1, 6, 0,19, 0.00,60.00,Friday
7,24.375
8,27.43387087859004
9,27.53926898149751
96,51.91830093980154
2,6, 1, 6, 0,20, 0.00,60.00,Friday
7,23.375
8,26.338148972830245
9,26.45404830158072
96,55.375826476605087
2,6, 1, 6, 0,21, 0.00,60.00,Friday
7,22.500000000000005
8,25.2228175195819
9,25.338817291726359
96,59.18002765866678
2,6, 1, 6, 0,22, 0.00,60.00,Friday
7,22.075
8,24.176321349420904
9,24.296445484573256
96,62.9776202901302
2,6, 1, 6, 0,23, 0.00,60.00,Friday
7,22.0
8,23.225200227703398
9,23.35255358411365
96,66.7021154708703
2,6, 1, 6, 0,24, 0.00,60.00,Friday
7,21.874999999999998
8,22.41175245816212
9,22.53886827493907
96,70.09774562934551
2,7, 1, 7, 0, 1, 0.00,60.00,Saturday
7,21.3
8,21.71709478992748
9,21.846685601774415
96,73.11484844071025
2,7, 1, 7, 0, 2, 0.00,60.00,Saturday
7,20.75
8,21.08698761569455
9,21.222754846729705
96,75.90682035700621
2,7, 1, 7, 0, 3, 0.00,60.00,Saturday
7,20.349999999999999
8,20.510124245496578
9,20.65609508505942
96,78.5649397857498
2,7, 1, 7, 0, 4, 0.00,60.00,Saturday
7,20.075
8,20.002732804444297
9,20.140232292567846
96,81.10722596385316
2,7, 1, 7, 0, 5, 0.00,60.00,Saturday
7,20.0
8,19.58720840733297
9,19.702589481333477
96,83.3363561682957
2,7, 1, 7, 0, 6, 0.00,60.00,Saturday
7,19.875
8,19.2620670579457
9,19.353200309133869
96,85.1655572250983
2,7, 1, 7, 0, 7, 0.00,60.00,Saturday
7,19.925
8,19.09580543396263
9,19.14197830308594
96,86.35335356410492
2,7, 1, 7, 0, 8, 0.00,60.00,Saturday
7,20.625
8,19.376945429624528
9,19.35824757153815
96,85.23810844327883
2,7, 1, 7, 0, 9, 0.00,60.00,Saturday
7,21.875
8,20.35613882820212
9,20.28207104111196
96,80.56425300668696
2,7, 1, 7, 0,10, 0.00,60.00,Saturday
7,23.4
8,21.887656836172974
9,21.786260250822193
96,73.49627535913482
2,7, 1, 7, 0,11, 0.00,60.00,Saturday
7,23.375
8,23.622806376405209
9,23.467502638326225
96,66.36562370306806
2,7, 1, 7, 0,12, 0.00,60.00,Saturday
7,23.750000000000005
8,24.7280027255137
9,24.701571067910053
96,61.60057917116092
2,7, 1, 7, 0,13, 0.00,60.00,Saturday
7,24.075
8,23.78534269382859
9,23.943848463082728
96,64.38222273928014
2,7, 1, 7, 0,14, 0.00,60.00,Saturday
7,25.25
8,24.163951756390924
9,24.002797223253283
96,64.05984897480778
2,7, 1, 7, 0,15, 0.00,60.00,Saturday
7,26.375
8,25.88418304814573
9,25.646149274640288
96,58.01992065689491
2,7, 1, 7, 0,16, 0.00,60.00,Saturday
7,26.225
8,27.10612040233733
9,26.959287155467235
96,53.65067038350976
2,7, 1, 7, 0,17, 0.00,60.00,Saturday
7,25.375
8,27.411803611129956
9,27.37258809503349
96,52.35980966368105
2,7, 1, 7, 0,18, 0.00,60.00,Saturday
7,23.375
8,26.737401976637807
9,26.84892051212355
96,54.0104597058374
2,7, 1, 7, 0,19, 0.00,60.00,Saturday
7,21.525
8,24.406482121449615
9,24.758753229014986
96,61.168394051608419
2,7, 1, 7, 0,20, 0.00,60.00,Saturday
7,21.0
8,22.791456513649025
9,22.92239858510902
96,68.31166053507731
2,7, 1, 7, 0,21, 0.00,60.00,Saturday
7,21.0
8,22.03855716131013
9,22.102730011638387
96,71.86966332211289
2,7, 1, 7, 0,22, 0.00,60.00,Saturday
7,20.375
8,21.486875053138545
9,21.54901893161677
96,74.37190855473996
2,7, 1, 7, 0,23, 0.00,60.00,Saturday
7,20.0
8,20.98569428494801
9,21.052451910842906
96,76.67094974069015
2,7, 1, 7, 0,24, 0.00,60.00,Saturday
7,19.625
8,20.478849293212645
9,20.564221439939279
96,79.01103039536966
2,8, 1, 8, 0, 1, 0.00,60.00,Sunday
7,19.15
8,19.859511005674869
9,19.960835483287846
96,82.07318420737383
2,8, 1, 8, 0, 2, 0.00,60.00,Sunday
7,18.375
8,19.31932722758442
9,19.404318304660284
96,84.99387437033923
2,8, 1, 8, 0, 3, 0.00,60.00,Sunday
7,17.75
8,18.719754254532533
9,18.821466229360657
96,88.14060716110503
2,8, 1, 8, 0, 4, 0.00,60.00,Sunday
7,17.85
8,18.27393950344002
9,18.36256672897383
96,90.70723846541941
2,8, 1, 8, 0, 5, 0.00,60.00,Sunday
7,17.375
8,18.057483528608548
9,18.10241390170095
96,92.26516350650886
2,8, 1, 8, 0, 6, 0.00,60.00,Sunday
7,17.5
8,17.827067971157239
9,17.880166069977024
96,93.66962720165187
2,8, 1, 8, 0, 7, 0.00,60.00,Sunday
7,17.925
8,17.71134786377504
9,17.743659383682734
96,94.5177234703852
2,8, 1, 8, 0, 8, 0.00,60.00,Sunday
7,18.0
8,17.75053871906912
9,17.760941043948976
96,94.48112677306065
2,8, 1, 8, 0, 9, 0.00,60.00,Sunday
7,18.625
8,17.934776764576509
9,17.92340045160971
96,93.55988464323795
2,8, 1, 8, 0,10, 0.00,60.00,Sunday
7,20.25
8,18.48158041972291
9,18.45163509290274
96,90.51712767124492
2,8, 1, 8, 0,11, 0.00,60.00,Sunday
7,22.25
8,19.85155061948641
9,19.69329965095698
96,83.74802436284871
2,8, 1, 8, 0,12, 0.00,60.00,Sunday
7,23.375
8,21.818063057804296
9,21.59399618495039
96,74.46434177888838
2,8, 1, 8, 0,13, 0.00,60.00,Sunday
7,21.975
8,23.272770826070678
9,23.154623593987617
96,67.6372503635143
2,8, 1, 8, 0,14, 0.00,60.00,Sunday
7,21.499999999999998
8,22.706075011522655
9,22.80925186443991
96,69.03813484004513
2,8, 1, 8, 0,15, 0.00,60.00,Sunday
7,22.300000000000006
8,22.620535496122714
9,22.538902609178977
96,70.12367534138957
2,8, 1, 8, 0,16, 0.00,60.00,Sunday
7,23.475
8,23.282630148710838
9,23.186591424574407
96,67.35141811108729
2,8, 1, 8, 0,17, 0.00,60.00,Sunday
7,24.0
8,23.791895546209834
9,23.728930530310465
96,65.1071762677459
2,8, 1, 8, 0,18, 0.00,60.00,Sunday
7,24.0625
8,23.89844351966788
9,23.905585128599527
96,64.39002949306334
2,8, 1, 8, 0,19, 0.00,60.00,Sunday
7,23.4125
8,23.550813742934733
9,23.616622437051086
96,65.52200078573429
2,8, 1, 8, 0,20, 0.00,60.00,Sunday
7,22.375
8,22.946787382088368
9,23.04024698718856
96,67.89236386887488
2,8, 1, 8, 0,21, 0.00,60.00,Sunday
7,22.499999999999998
8,22.331156116686047
9,22.43207469288143
96,70.47198722101514
2,8, 1, 8, 0,22, 0.00,60.00,Sunday
7,22.925
8,21.81614524804175
9,21.920927702059957
96,72.69969129180712
2,8, 1, 8, 0,23, 0.00,60.00,Sunday
7,22.375
8,21.35573210316443
9,21.475598388738118
96,74.70600043595508
2,8, 1, 8, 0,24, 0.00,60.00,Sunday
7,21.75
8,20.887009188619936
9,21.032054816164768
96,76.82112192295031
2,9, 1, 9, 0, 1, 0.00,60.00,Monday
7,21.85
8,20.431527962662039
9,20.584295720960435
96,78.94524600382445
2,9, 1, 9, 0, 2, 0.00,60.00,Monday
7,21.375
8,20.027969574776905
9,20.16367430452767
96,80.98872280775191
2,9, 1, 9, 0, 3, 0.00,60.00,Monday
7,20.375
8,19.674814132694129
9,19.791535799483876
96,82.87715005652149
2,9, 1, 9, 0, 4, 0.00,60.00,Monday
7,20.0
8,19.373437788436854
9,19.46722365319803
96,84.56307157565641
2,9, 1, 9, 0, 5, 0.00,60.00,Monday
7,20.0
8,19.19503153950989
9,19.261546590570707
96,85.71246990443177
2,9, 1, 9, 0, 6, 0.00,60.00,Monday
7,19.5
8,19.062481326551308
9,19.109814309739567
96,86.56348843407293
2,9, 1, 9, 0, 7, 0.00,60.00,Monday
7,18.45
8,18.890960814581637
9,18.935084268682176
96,87.51282329607551
2,9, 1, 9, 0, 8, 0.00,60.00,Monday
7,18.0
8,18.78814264880036
9,18.813780245472807
96,88.24028340705405
2,9, 1, 9, 0, 9, 0.00,60.00,Monday
7,18.625
8,18.87325787804549
9,18.90444867663419
96,87.77920229184953
2,9, 1, 9, 0,10, 0.00,60.00,Monday
7,20.25
8,19.174084791155253
9,19.223198227842685
96,86.05619599333335
2,9, 1, 9, 0,11, 0.00,60.00,Monday
7,22.25
8,20.375409188824013
9,20.2525759295091
96,80.757372505159
2,9, 1, 9, 0,12, 0.00,60.00,Monday
7,23.625
8,22.193132083073324
9,21.99761683408106
96,72.51017457672619
2,9, 1, 9, 0,13, 0.00,60.00,Monday
7,24.625
8,23.89559388711286
9,23.69380165242405
96,65.34549365509831
2,9, 1, 9, 0,14, 0.00,60.00,Monday
7,25.625
8,25.455425771114944
9,25.243649040734185
96,59.48495807740505
2,9, 1, 9, 0,15, 0.00,60.00,Monday
7,26.625
8,26.855022889946583
9,26.65215396957047
96,54.660007420982569
2,9, 1, 9, 0,16, 0.00,60.00,Monday
7,27.0
8,27.843573392380948
9,27.706391908275096
96,51.31628654900565
2,9, 1, 9, 0,17, 0.00,60.00,Monday
7,26.4375
8,28.21141544437581
9,28.158393313545916
96,49.955745328439267
2,9, 1, 9, 0,18, 0.00,60.00,Monday
7,25.6
8,27.89530636984048
9,27.931688848198737
96,50.62221431018245
2,9, 1, 9, 0,19, 0.00,60.00,Monday
7,23.8625
8,26.981473729729616
9,27.0717244741277
96,53.24106234127942
2,9, 1, 9, 0,20, 0.00,60.00,Monday
7,22.375
8,25.788561572844495
9,25.925719762206147
96,57.005639631552799
2,9, 1, 9, 0,21, 0.00,60.00,Monday
7,21.6875
8,24.58902060418135
9,24.73998108666033
96,61.23892616770579
2,9, 1, 9, 0,22, 0.00,60.00,Monday
7,21.312500000000005
8,23.49535021290848
9,23.6174074148378
96,65.52803098941163
2,9, 1, 9, 0,23, 0.00,60.00,Monday
7,21.075
8,22.548654841248159
9,22.663369070309753
96,69.41549787380584
2,9, 1, 9, 0,24, 0.00,60.00,Monday
7,20.625
8,21.736190569825796
9,21.85303859092959
96,72.97531770118144
2,10, 1,10, 0, 1, 0.00,60.00,Tuesday
7,20.15
8,21.026665656564878
9,21.1500239458005
96,76.16140925173285
2,10, 1,10, 0, 2, 0.00,60.00,Tuesday
7,20.0
8,20.414326483096365
9,20.546389426044678
96,79.00909938507496
2,10, 1,10, 0, 3, 0.00,60.00,Tuesday
7,19.75
8,19.912003020182259
9,20.039493221191415
96,81.46472712817547
2,10, 1,10, 0, 4, 0.00,60.00,Tuesday
7,19.225
8,19.489778211792726
9,19.60132184170995
96,83.73261962842794
2,10, 1,10, 0, 5, 0.00,60.00,Tuesday
7,19.625
8,19.11615965465483
9,19.21285737213427
96,85.81711083280575
2,10, 1,10, 0, 6, 0.00,60.00,Tuesday
7,19.375
8,18.80226004773892
9,18.87324649091824
96,87.65434345865536
2,10, 1,10, 0, 7, 0.00,60.00,Tuesday
7,19.625
8,18.779979401787288
9,18.786987233948496
96,88.18959131125483
2,10, 1,10, 0, 8, 0.00,60.00,Tuesday
7,20.625
8,19.329012693356458
9,19.293093581786189
96,85.55354707857707
2,10, 1,10, 0, 9, 0.00,60.00,Tuesday
7,21.375
8,20.38416333173415
9,20.304273995682857
96,80.39448077746919
2,10, 1,10, 0,10, 0.00,60.00,Tuesday
7,21.85
8,21.682075778094107
9,21.596999686953539
96,74.30762967174377
2,10, 1,10, 0,11, 0.00,60.00,Tuesday
7,22.625
8,23.032169902348323
9,22.92244092098483
96,68.5770255512772
2,10, 1,10, 0,12, 0.00,60.00,Tuesday
7,23.25
8,23.879752870188776
9,23.879204390763986
96,64.71178453255148
2,10, 1,10, 0,13, 0.00,60.00,Tuesday
7,24.4
8,23.119131092201746
9,23.322119496305605
96,66.87822711743664
2,10, 1,10, 0,14, 0.00,60.00,Tuesday
7,25.0
8,23.566850931939368
9,23.431683579194784
96,66.371397238443
2,10, 1,10, 0,15, 0.00,60.00,Tuesday
7,22.5
8,24.435867764110335
9,24.389131215008957
96,62.57636519759197
2,10, 1,10, 0,16, 0.00,60.00,Tuesday
7,21.625
8,23.298108705342977
9,23.48358048348081
96,66.0709059654338
2,10, 1,10, 0,17, 0.00,60.00,Tuesday
7,22.0
8,22.45908316835284
9,22.514387176825346
96,70.0421386339448
2,10, 1,10, 0,18, 0.00,60.00,Tuesday
7,20.75
8,21.41873626253455
9,21.60543279752053
96,74.0482143380429
2,10, 1,10, 0,19, 0.00,60.00,Tuesday
7,19.375
8,20.388363136070905
9,20.51934319091123
96,79.20485054205
2,10, 1,10, 0,20, 0.00,60.00,Tuesday
7,19.0
8,19.750984205248558
9,19.822455452250329
96,82.7193357340275
2,10, 1,10, 0,21, 0.00,60.00,Tuesday
7,19.125
8,19.32393437523817
9,19.394245637979766
96,85.00974509848581
2,10, 1,10, 0,22, 0.00,60.00,Tuesday
7,19.075
8,18.953122389604219
9,19.007149580888759
96,87.12108332248067
2,10, 1,10, 0,23, 0.00,60.00,Tuesday
7,19.0
8,18.60698099444307
9,18.673112516487298
96,89.02210109624615
2,10, 1,10, 0,24, 0.00,60.00,Tuesday
7,19.25
8,18.276086165305978
9,18.31637080358676
96,91.0731168968959
2,11, 1,11, 0, 1, 0.00,60.00,Wednesday
7,19.15
8,17.97261734957945
9,17.972256323795145
96,93.06353339936014
2,11, 1,11, 0, 2, 0.00,60.00,Wednesday
7,19.0
8,17.72529010702224
9,17.700272898728266
96,94.60429353854134
2,11, 1,11, 0, 3, 0.00,60.00,Wednesday
7,19.0
8,17.559996578686495
9,17.51163792906361
96,95.69632472646308
2,11, 1,11, 0, 4, 0.00,60.00,Wednesday
7,19.0
8,17.469098237779745
9,17.408639922648825
96,96.32079392683211
2,11, 1,11, 0, 5, 0.00,60.00,Wednesday
7,19.0
8,17.407233044017369
9,17.34733912983619
96,96.76284936601701
2,11, 1,11, 0, 6, 0.00,60.00,Wednesday
7,19.25
8,17.355703370416
9,17.291560080960413
96,97.1457301984743
2,11, 1,11, 0, 7, 0.00,60.00,Wednesday
7,19.15
8,17.457652368047698
9,17.357850911599387
96,96.8083136325574
2,11, 1,11, 0, 8, 0.00,60.00,Wednesday
7,19.0
8,17.963101933427028
9,17.845481746635877
96,93.98531176675353
2,11, 1,11, 0, 9, 0.00,60.00,Wednesday
7,19.0
8,18.477595762376123
9,18.42337936310051
96,90.66994571134888
2,11, 1,11, 0,10, 0.00,60.00,Wednesday
7,19.0
8,19.28643888952373
9,19.153333562506213
96,86.63298828874719
2,11, 1,11, 0,11, 0.00,60.00,Wednesday
7,19.625
8,20.70033574061025
9,20.5066549467214
96,79.68125100395926
2,11, 1,11, 0,12, 0.00,60.00,Wednesday
7,20.625
8,22.48636277431328
9,22.241817204402407
96,71.65252818767113
2,11, 1,11, 0,13, 0.00,60.00,Wednesday
7,22.25
8,24.4190166823506
9,24.142910590779118
96,63.87516016950054
2,11, 1,11, 0,14, 0.00,60.00,Wednesday
7,23.625
8,26.107889542437083
9,25.860034940996639
96,57.60550098643722
2,11, 1,11, 0,15, 0.00,60.00,Wednesday
7,23.125
8,27.05928003727967
9,26.91665139631229
96,54.08610019577373
2,11, 1,11, 0,16, 0.00,60.00,Wednesday
7,22.225
8,27.264184119766158
9,27.20628085065298
96,53.13383979635032
2,11, 1,11, 0,17, 0.00,60.00,Wednesday
7,21.375
8,26.986291630179048
9,26.983939917043608
96,53.81045501414195
2,11, 1,11, 0,18, 0.00,60.00,Wednesday
7,20.75
8,25.90452330433626
9,26.033271606244914
96,56.89828840685965
2,11, 1,11, 0,19, 0.00,60.00,Wednesday
7,20.225
8,23.35112659631733
9,23.741323627216877
96,65.28958771902883
2,11, 1,11, 0,20, 0.00,60.00,Wednesday
7,20.0
8,21.67374698900069
9,21.827341681053203
96,73.34913540565425
2,11, 1,11, 0,21, 0.00,60.00,Wednesday
7,20.0
8,20.822157609336647
9,20.91479914476197
96,77.58929350630169
2,11, 1,11, 0,22, 0.00,60.00,Wednesday
7,19.375
8,19.915721961168236
9,20.041611040172996
96,81.8883240395104
2,11, 1,11, 0,23, 0.00,60.00,Wednesday
7,19.0
8,19.139166397989514
9,19.258873749789435
96,85.96114215928864
2,11, 1,11, 0,24, 0.00,60.00,Wednesday
7,18.875
8,18.690371767712369
9,18.782211634532805
96,88.55356097904218
2,12, 1,12, 0, 1, 0.00,60.00,Thursday
7,18.925
8,18.363315777625109
9,18.438341656887596
96,90.48039550894349
2,12, 1,12, 0, 2, 0.00,60.00,Thursday
7,19.0
8,18.093317318960936
9,18.142366022599476
96,92.17637419359036
2,12, 1,12, 0, 3, 0.00,60.00,Thursday
7,18.875
8,17.900542260499923
9,17.915541749502194
96,93.50035323113218
2,12, 1,12, 0, 4, 0.00,60.00,Thursday
7,18.3
8,17.79930318538831
9,17.78013707646727
96,94.30068284614072
2,12, 1,12, 0, 5, 0.00,60.00,Thursday
7,18.0
8,17.796582202043035
9,17.777384999452829
96,94.31697683226284
2,12, 1,12, 0, 6, 0.00,60.00,Thursday
7,18.125
8,17.705337829590368
9,17.71070255545919
96,94.71450246920405
2,12, 1,12, 0, 7, 0.00,60.00,Thursday
7,18.7
8,17.65041586002902
9,17.632257314503567
96,95.25091381648905